 vasp.5.2.12 11Nov11 complex                                                    
  
 executed on             LinuxIFC date 2014.05.30  10:53:25
 running on    4 nodes
 distr:  one band on    1 nodes,    4 groups


--------------------------------------------------------------------------------------------------------


 INCAR:
 POTCAR:    PAW_PBE Cu 22Jun2005                  
 POTCAR:    PAW_PBE Al 04Jan2001                  
 POTCAR:    PAW_PBE Cu 22Jun2005                  
   VRHFIN =Cu: d10 p1                                                           
   LEXCH  = PE                                                                  
   EATOM  =  1390.9808 eV,  102.2342 Ry                                         
                                                                                
   TITEL  = PAW_PBE Cu 22Jun2005                                                
   LULTRA =        F    use ultrasoft PP ?                                      
   IUNSCR =        1    unscreen: 0-lin 1-nonlin 2-no                           
   RPACOR =    2.000    partial core radius                                     
   POMASS =   63.546; ZVAL   =   11.000    mass and valenz                      
   RCORE  =    2.300    outmost cutoff radius                                   
   RWIGS  =    2.200; RWIGS  =    1.164    wigner-seitz radius (au A)           
   ENMAX  =  295.446; ENMIN  =  221.585 eV                                      
   ICORE  =        3    local potential                                         
   LCOR   =        T    correct aug charges                                     
   LPAW   =        T    paw PP                                                  
   EAUG   =  586.980                                                            
   DEXC   =    0.000                                                            
   RMAX   =    2.344    core radius for proj-oper                               
   RAUG   =    1.300    factor for augmentation sphere                          
   RDEP   =    2.302    radius for radial grids                                 
   RDEPT  =    1.771    core radius for aug-charge                              
                                                                                
   Atomic configuration                                                         
    9 entries                                                                   
     n  l   j            E        occ.                                          
     1  0  0.50     -8850.2468   2.0000                                         
     2  0  0.50     -1062.3498   2.0000                                         
     2  1  1.50      -916.8226   6.0000                                         
     3  0  0.50      -114.6929   2.0000                                         
     3  1  1.50       -72.1325   6.0000                                         
     3  2  2.50        -5.0394  10.0000                                         
     4  0  0.50        -4.6097   1.0000                                         
     4  1  0.50        -4.0817   0.0000                                         
     4  3  2.50        -1.3606   0.0000                                         
   Description                                                                  
     l       E           TYP  RCUT    TYP  RCUT                                 
     2     -5.0393973     23  2.200                                             
     2     10.8846608     23  2.200                                             
     0     -4.6097109     23  2.200                                             
     0      8.2520465     23  2.200                                             
     1     -2.7211652     23  2.200                                             
     1     21.7055443     23  2.200                                             
     3      2.7211652     23  2.300                                             
  local pseudopotential read in
  partial core-charges read in
  partial kinetic energy density read in
  atomic valenz-charges read in
  non local Contribution for L=           2  read in
    real space projection operators read in
  non local Contribution for L=           2  read in
    real space projection operators read in
  non local Contribution for L=           0  read in
    real space projection operators read in
  non local Contribution for L=           0  read in
    real space projection operators read in
  non local Contribution for L=           1  read in
    real space projection operators read in
  non local Contribution for L=           1  read in
    real space projection operators read in
    PAW grid and wavefunctions read in
 
   number of l-projection  operators is LMAX  =           6
   number of lm-projection operators is LMMAX =          18
 
 POTCAR:    PAW_PBE Al 04Jan2001                  
   VRHFIN =Al: s2p1                                                             
   LEXCH  = PE                                                                  
   EATOM  =    53.5387 eV,    3.9350 Ry                                         
                                                                                
   TITEL  = PAW_PBE Al 04Jan2001                                                
   LULTRA =        F    use ultrasoft PP ?                                      
   IUNSCR =        1    unscreen: 0-lin 1-nonlin 2-no                           
   RPACOR =    1.500    partial core radius                                     
   POMASS =   26.981; ZVAL   =    3.000    mass and valenz                      
   RCORE  =    1.900    outmost cutoff radius                                   
   RWIGS  =    2.650; RWIGS  =    1.402    wigner-seitz radius (au A)           
   ENMAX  =  240.300; ENMIN  =  180.225 eV                                      
   ICORE  =        2    local potential                                         
   LCOR   =        T    correct aug charges                                     
   LPAW   =        T    paw PP                                                  
   EAUG   =  291.052                                                            
   DEXC   =    0.000                                                            
   RMAX   =    1.939    core radius for proj-oper                               
   RAUG   =    1.300    factor for augmentation sphere                          
   RDEP   =    1.966    radius for radial grids                                 
   RDEPT  =    1.856    core radius for aug-charge                              
                                                                                
   Atomic configuration                                                         
    6 entries                                                                   
     n  l   j            E        occ.                                          
     1  0  0.50     -1511.1048   2.0000                                         
     2  0  0.50      -108.1629   2.0000                                         
     2  1  1.50       -69.6402   6.0000                                         
     3  0  0.50        -7.7528   2.0000                                         
     3  1  1.50        -2.7121   1.0000                                         
     3  2  2.50        -2.7212   0.0000                                         
   Description                                                                  
     l       E           TYP  RCUT    TYP  RCUT                                 
     0     -7.7528455     23  1.900                                             
     0     -3.3096929     23  1.900                                             
     1     -2.7120682     23  1.900                                             
     1     13.6058260     23  1.900                                             
     2     -2.7211652      7  1.900                                             
  local pseudopotential read in
  partial core-charges read in
  partial kinetic energy density read in
  atomic valenz-charges read in
  non local Contribution for L=           0  read in
    real space projection operators read in
  non local Contribution for L=           0  read in
    real space projection operators read in
  non local Contribution for L=           1  read in
    real space projection operators read in
  non local Contribution for L=           1  read in
    real space projection operators read in
    PAW grid and wavefunctions read in
 
   number of l-projection  operators is LMAX  =           4
   number of lm-projection operators is LMMAX =           8
 
  PAW_PBE Cu 22Jun2005                  :
 energy of atom  1       EATOM=-1390.9808
 kinetic energy error for atom=    0.0452 (will be added to EATOM!!)
  PAW_PBE Al 04Jan2001                  :
 energy of atom  2       EATOM=  -53.5387
 kinetic energy error for atom=    0.0012 (will be added to EATOM!!)
 
 
 POSCAR: XYZ: Cu3Al1                             
  positions in direct lattice
  velocities in cartesian coordinates
 exchange correlation table for  LEXCH =        8
   RHO(1)=    0.500       N(1)  =     2000
   RHO(2)=  100.500       N(2)  =     4000
 


--------------------------------------------------------------------------------------------------------


 ion  position               nearest neighbor table
   1  0.500  0.500  0.500-   2 2.52   2 2.52   2 2.52   2 2.52   3 2.52   3 2.52   3 2.52   3 2.52
                             4 2.91   4 2.91   4 2.91   4 2.91   4 2.91   4 2.91
   2  0.250  0.250  0.250-   4 2.52   4 2.52   4 2.52   1 2.52   4 2.52   1 2.52   1 2.52   1 2.52

   3  0.750  0.750  0.750-   1 2.52   1 2.52   1 2.52   1 2.52   4 2.52   4 2.52   4 2.52   4 2.52

   4  0.000  0.000  0.000-   3 2.52   3 2.52   3 2.52   2 2.52   3 2.52   2 2.52   2 2.52   2 2.52
                             1 2.91   1 2.91   1 2.91   1 2.91   1 2.91   1 2.91
 
  LATTYP: Found a face centered cubic cell.
 ALAT       =     5.8130829251
  
  Lattice vectors:
  
 A1 = (   2.9065414625,   2.9065414625,   0.0000000000)
 A2 = (   0.0000000000,   2.9065414625,   2.9065414625)
 A3 = (   2.9065414625,   0.0000000000,   2.9065414625)
 Subroutine PRICEL returns:
 Original cell was already a primitive cell.
 

Analysis of symmetry for initial positions (statically):

 Routine SETGRP: Setting up the symmetry group for a 
 face centered cubic supercell.


 Subroutine GETGRP returns: Found 48 space group operations
 (whereof 48 operations were pure point group operations)
 out of a pool of 48 trial point group operations.


The static configuration has the point symmetry O_h .

Analysis of symmetry for dynamics (positions and initial velocities):

 Subroutine DYNSYM returns: Found 48 space group operations
 (whereof 48 operations were pure point group operations)
 out of a pool of 48 trial space group operations
 (whereof 48 operations were pure point group operations)
 and found also     1 'primitive' translations


The dynamic configuration has the point symmetry O_h .
 
 
 KPOINTS: Automatic mesh                          

Automatic generation of k-mesh.
 
 Subroutine IBZKPT returns following result:
 ===========================================
 
 Found     56 irreducible k-points:
 
 Following reciprocal coordinates:
            Coordinates               Weight
  0.000000  0.000000  0.000000      1.000000
  0.090909  0.000000  0.000000      8.000000
  0.181818  0.000000  0.000000      8.000000
  0.272727  0.000000  0.000000      8.000000
  0.363636  0.000000  0.000000      8.000000
  0.454545  0.000000  0.000000      8.000000
  0.090909  0.090909  0.000000      6.000000
  0.181818  0.090909  0.000000     24.000000
  0.272727  0.090909  0.000000     24.000000
  0.363636  0.090909  0.000000     24.000000
  0.454545  0.090909  0.000000     24.000000
 -0.454545  0.090909  0.000000     24.000000
 -0.363636  0.090909  0.000000     24.000000
 -0.272727  0.090909  0.000000     24.000000
 -0.181818  0.090909  0.000000     24.000000
 -0.090909  0.090909  0.000000     12.000000
  0.181818  0.181818  0.000000      6.000000
  0.272727  0.181818  0.000000     24.000000
  0.363636  0.181818  0.000000     24.000000
  0.454545  0.181818  0.000000     24.000000
 -0.454545  0.181818  0.000000     24.000000
 -0.363636  0.181818  0.000000     24.000000
 -0.272727  0.181818  0.000000     24.000000
 -0.181818  0.181818  0.000000     12.000000
  0.272727  0.272727  0.000000      6.000000
  0.363636  0.272727  0.000000     24.000000
  0.454545  0.272727  0.000000     24.000000
 -0.454545  0.272727  0.000000     24.000000
 -0.363636  0.272727  0.000000     24.000000
 -0.272727  0.272727  0.000000     12.000000
  0.363636  0.363636  0.000000      6.000000
  0.454545  0.363636  0.000000     24.000000
 -0.454545  0.363636  0.000000     24.000000
 -0.363636  0.363636  0.000000     12.000000
  0.454545  0.454545  0.000000      6.000000
 -0.454545  0.454545  0.000000     12.000000
  0.272727  0.181818  0.090909     24.000000
  0.363636  0.181818  0.090909     48.000000
  0.454545  0.181818  0.090909     48.000000
 -0.454545  0.181818  0.090909     48.000000
  0.363636  0.272727  0.090909     24.000000
  0.454545  0.272727  0.090909     48.000000
 -0.454545  0.272727  0.090909     48.000000
 -0.363636  0.272727  0.090909     48.000000
 -0.272727  0.272727  0.090909     48.000000
 -0.181818  0.272727  0.090909     24.000000
  0.454545  0.363636  0.090909     24.000000
 -0.454545  0.363636  0.090909     48.000000
 -0.363636  0.363636  0.090909     48.000000
 -0.272727  0.363636  0.090909     24.000000
 -0.454545  0.454545  0.090909     24.000000
 -0.363636  0.454545  0.090909     24.000000
 -0.454545  0.363636  0.181818     24.000000
 -0.363636  0.363636  0.181818     48.000000
 -0.363636  0.454545  0.181818     24.000000
 -0.272727  0.454545  0.181818     24.000000
 
 Following cartesian coordinates:
            Coordinates               Weight
  0.000000  0.000000  0.000000      1.000000
  0.015639  0.015639 -0.015639      8.000000
  0.031277  0.031277 -0.031277      8.000000
  0.046916  0.046916 -0.046916      8.000000
  0.062555  0.062555 -0.062555      8.000000
  0.078194  0.078194 -0.078194      8.000000
  0.000000  0.031277  0.000000      6.000000
  0.015639  0.046916 -0.015639     24.000000
  0.031277  0.062555 -0.031277     24.000000
  0.046916  0.078194 -0.046916     24.000000
  0.062555  0.093832 -0.062555     24.000000
 -0.093832 -0.062555  0.093832     24.000000
 -0.078194 -0.046916  0.078194     24.000000
 -0.062555 -0.031277  0.062555     24.000000
 -0.046916 -0.015639  0.046916     24.000000
 -0.031277  0.000000  0.031277     12.000000
  0.000000  0.062555  0.000000      6.000000
  0.015639  0.078194 -0.015639     24.000000
  0.031277  0.093832 -0.031277     24.000000
  0.046916  0.109471 -0.046916     24.000000
 -0.109471 -0.046916  0.109471     24.000000
 -0.093832 -0.031277  0.093832     24.000000
 -0.078194 -0.015639  0.078194     24.000000
 -0.062555  0.000000  0.062555     12.000000
  0.000000  0.093832  0.000000      6.000000
  0.015639  0.109471 -0.015639     24.000000
  0.031277  0.125110 -0.031277     24.000000
 -0.125110 -0.031277  0.125110     24.000000
 -0.109471 -0.015639  0.109471     24.000000
 -0.093832  0.000000  0.093832     12.000000
  0.000000  0.125110  0.000000      6.000000
  0.015639  0.140748 -0.015639     24.000000
 -0.140748 -0.015639  0.140748     24.000000
 -0.125110  0.000000  0.125110     12.000000
  0.000000  0.156387  0.000000      6.000000
 -0.156387  0.000000  0.156387     12.000000
  0.031277  0.062555  0.000000     24.000000
  0.046916  0.078194 -0.015639     48.000000
  0.062555  0.093832 -0.031277     48.000000
 -0.093832 -0.062555  0.125110     48.000000
  0.031277  0.093832  0.000000     24.000000
  0.046916  0.109471 -0.015639     48.000000
 -0.109471 -0.046916  0.140748     48.000000
 -0.093832 -0.031277  0.125110     48.000000
 -0.078194 -0.015639  0.109471     48.000000
 -0.062555  0.000000  0.093832     24.000000
  0.031277  0.125110  0.000000     24.000000
 -0.125110 -0.031277  0.156387     48.000000
 -0.109471 -0.015639  0.140748     48.000000
 -0.093832  0.000000  0.125110     24.000000
 -0.140748 -0.015639  0.172026     24.000000
 -0.125110  0.000000  0.156387     24.000000
 -0.109471 -0.046916  0.172026     24.000000
 -0.093832 -0.031277  0.156387     48.000000
 -0.109471 -0.015639  0.172026     24.000000
 -0.093832  0.000000  0.156387     24.000000
 


--------------------------------------------------------------------------------------------------------




 Dimension of arrays:
   k-points           NKPTS =     56   k-points in BZ     NKDIM =     56   number of bands    NBANDS=     24
   number of dos      NEDOS =    301   number of ions     NIONS =      4
   non local maximal  LDIM  =      6   non local SUM 2l+1 LMDIM =     18
   total plane-waves  NPLWV =   5832
   max r-space proj   IRMAX =      1   max aug-charges    IRDMAX=   4821
   dimension x,y,z NGX =    18 NGY =   18 NGZ =   18
   dimension x,y,z NGXF=    36 NGYF=   36 NGZF=   36
   support grid    NGXF=    36 NGYF=   36 NGZF=   36
   ions per type =               3   1
 NGX,Y,Z   is equivalent  to a cutoff of   7.28,  7.28,  7.28 a.u.
 NGXF,Y,Z  is equivalent  to a cutoff of  14.56, 14.56, 14.56 a.u.


 I would recommend the setting:
   dimension x,y,z NGX =    17 NGY =   17 NGZ =   17
 SYSTEM =  Al1Cu3                                  
 POSCAR =  XYZ: Cu3Al1                             

 Startparameter for this run:
   NWRITE =      2    write-flag & timer
   PREC   = normal    normal or accurate (medium, high low for compatibility)
   ISTART =      0    job   : 0-new  1-cont  2-samecut
   ICHARG =      2    charge: 1-file 2-atom 10-const
   ISPIN  =      1    spin polarized calculation?
   LNONCOLLINEAR =      F non collinear calculations
   LSORBIT =      F    spin-orbit coupling
   INIWAV =      1    electr: 0-lowe 1-rand  2-diag
   LASPH  =      F    aspherical Exc in radial PAW
   METAGGA=      F    non-selfconsistent MetaGGA calc.

 Electronic Relaxation 1
   ENCUT  =  295.4 eV  21.71 Ry    4.66 a.u.   5.76  5.76  5.76*2*pi/ulx,y,z
   ENINI  =  295.4     initial cutoff
   ENAUG  =  587.0 eV  augmentation charge cutoff
   NELM   =     40;   NELMIN=  2; NELMDL=  0     # of ELM steps 
   EDIFF  = 0.1E-05   stopping-criterion for ELM
   LREAL  =      F    real-space projection
   NLSPLINE    = F    spline interpolate recip. space projectors
   LCOMPAT=      F    compatible to vasp.4.4
   GGA_COMPAT  = T    GGA compatible to vasp.4.4-vasp.4.6
   LMAXPAW     = -100 max onsite density
   LMAXMIX     =    2 max onsite mixed and CHGCAR
   VOSKOWN=      0    Vosko Wilk Nusair interpolation
   ROPT   =    0.00000   0.00000
 Ionic relaxation
   EDIFFG = 0.1E-04   stopping-criterion for IOM
   NSW    =     10    number of steps for IOM
   NBLOCK =      1;   KBLOCK =     10    inner block; outer block 
   IBRION =      2    ionic relax: 0-MD 1-quasi-New 2-CG
   NFREE  =      1    steps in history (QN), initial steepest desc. (CG)
   ISIF   =      3    stress and relaxation
   IWAVPR =     11    prediction:  0-non 1-charg 2-wave 3-comb
   ISYM   =      2    0-nonsym 1-usesym 2-fastsym
   LCORR  =      T    Harris-Foulkes like correction to forces

   POTIM  = 0.2500    time-step for ionic-motion
   TEIN   =    0.0    initial temperature
   TEBEG  =    0.0;   TEEND  =   0.0 temperature during run
   SMASS  =  -3.00    Nose mass-parameter (am)
   estimated Nose-frequenzy (Omega)   =  0.10E-29 period in steps =****** mass=  -0.386E-27a.u.
   SCALEE = 1.0000    scale energy and forces
   NPACO  =    256;   APACO  = 16.0  distance and # of slots for P.C.
   PSTRESS=    0.0 pullay stress

  Mass of Ions in am
   POMASS =  63.55 26.98
  Ionic Valenz
   ZVAL   =  11.00  3.00
  Atomic Wigner-Seitz radii
   RWIGS  =  -1.00 -1.00
  virtual crystal weights 
   VCA    =   1.00  1.00
   NELECT =      36.0000    total number of electrons
   NUPDOWN=      -1.0000    fix difference up-down

 DOS related values:
   EMIN   =  10.00;   EMAX   =-10.00  energy-range for DOS
   EFERMI =   0.00
   ISMEAR =     1;   SIGMA  =   0.20  broadening in eV -4-tet -1-fermi 0-gaus

 Electronic relaxation 2 (details)
   IALGO  =     68    algorithm
   LDIAG  =      T    sub-space diagonalisation (order eigenvalues)
   LSUBROT=      T    optimize rotation matrix (better conditioning)
   TURBO    =      0    0=normal 1=particle mesh
   IRESTART =      0    0=no restart 2=restart with 2 vectors
   NREBOOT  =      0    no. of reboots
   NMIN     =      0    reboot dimension
   EREF     =   0.00    reference energy to select bands
   IMIX   =      4    mixing-type and parameters
     AMIX     =   0.40;   BMIX     =  1.00
     AMIX_MAG =   1.60;   BMIX_MAG =  1.00
     AMIN     =   0.10
     WC   =   100.;   INIMIX=   1;  MIXPRE=   1

 Intra band minimization:
   WEIMIN = 0.0010     energy-eigenvalue tresh-hold
   EBREAK =  0.10E-07  absolut break condition
   DEPER  =   0.30     relativ break condition  

   TIME   =   0.40     timestep for ELM

  volume/ion in A,a.u.               =      12.28        82.85
  Fermi-wavevector in a.u.,A,eV,Ry     =   1.476123  2.789468 29.646257  2.178938
  Thomas-Fermi vector in A             =   2.590688
 
 Write flags
   LWAVE  =      F    write WAVECAR
   LCHARG =      F    write CHGCAR
   LVTOT  =      F    write LOCPOT, total local potential
   LVHAR  =      F    write LOCPOT, Hartree potential only
   LELF   =      F    write electronic localiz. function (ELF)
   LORBIT =      0    0 simple, 1 ext, 2 COOP (PROOUT)


 Dipole corrections
   LMONO  =      F    monopole corrections only (constant potential shift)
   LDIPOL =      F    correct potential (dipole corrections)
   IDIPOL =      0    1-x, 2-y, 3-z, 4-all directions 
   EPSILON=  1.0000000 bulk dielectric constant

 Exchange correlation treatment:
   GGA     =    --    GGA type
   LEXCH   =     8    internal setting for exchange type
   VOSKOWN=      0    Vosko Wilk Nusair interpolation
   LHFCALC =     F    Hartree Fock is set to
   LHFONE  =     F    Hartree Fock one center treatment
   AEXX    =    0.0000 exact exchange contribution

 Linear response parameters
   LEPSILON=     F    determine dielectric tensor
   LRPA    =     F    only Hartree local field effects (RPA)
   LNABLA  =     F    use nabla operator in PAW spheres
   LVEL    =     F    velocity operator in full k-point grid
   LINTERFAST=   F  fast interpolation
   KINTER  =     0    interpolate to denser k-point grid
   CSHIFT  =0.1000    complex shift for real part using Kramers Kronig
   OMEGAMAX=  -1.0    maximum frequency
   RTIME   =    0.100 relaxation time in fs

 Orbital magnetization related:
   ORBITALMAG=     F  switch on orbital magnetization
   LCHIMAG   =     F  perturbation theory with respect to B field
   DQ        =  0.001000  dq finite difference perturbation B field



--------------------------------------------------------------------------------------------------------


 conjugate gradient relaxation of ions
 charge density and potential will be updated during run
 non-spin polarized calculation
 RMM-DIIS sequential band-by-band and
  variant of blocked Davidson during initial phase
 perform sub-space diagonalisation
    before iterative eigenvector-optimisation
 modified Broyden-mixing scheme, WC =      100.0
 initial mixing is a Kerker type mixing with AMIX =  0.4000 and BMIX =      1.0000
 Hartree-type preconditioning will be used
 using additional bands            6
 reciprocal scheme for non local part
 use partial core corrections
 calculate Harris-corrections to forces 
   (improved forces if not selfconsistent)
 use gradient corrections 
 use of overlap-Matrix (Vanderbilt PP)
 Methfessel and Paxton  Order N= 1 SIGMA  =   0.20


--------------------------------------------------------------------------------------------------------


  energy-cutoff  :      295.45
  volume of cell :       49.11
      direct lattice vectors                 reciprocal lattice vectors
     2.906541463  2.906541463  0.000000000     0.172025759  0.172025759 -0.172025759
     0.000000000  2.906541463  2.906541463    -0.172025759  0.172025759  0.172025759
     2.906541463  0.000000000  2.906541463     0.172025759 -0.172025759  0.172025759

  length of vectors
     4.110470356  4.110470356  4.110470356     0.297957354  0.297957354  0.297957354


 
 k-points in units of 2pi/SCALE and weight: Automatic mesh                          
   0.00000000  0.00000000  0.00000000       0.001
   0.01563871  0.01563871 -0.01563871       0.006
   0.03127741  0.03127741 -0.03127741       0.006
   0.04691612  0.04691612 -0.04691612       0.006
   0.06255482  0.06255482 -0.06255482       0.006
   0.07819353  0.07819353 -0.07819353       0.006
   0.00000000  0.03127741  0.00000000       0.005
   0.01563871  0.04691612 -0.01563871       0.018
   0.03127741  0.06255482 -0.03127741       0.018
   0.04691612  0.07819353 -0.04691612       0.018
   0.06255482  0.09383223 -0.06255482       0.018
  -0.09383223 -0.06255482  0.09383223       0.018
  -0.07819353 -0.04691612  0.07819353       0.018
  -0.06255482 -0.03127741  0.06255482       0.018
  -0.04691612 -0.01563871  0.04691612       0.018
  -0.03127741  0.00000000  0.03127741       0.009
   0.00000000  0.06255482  0.00000000       0.005
   0.01563871  0.07819353 -0.01563871       0.018
   0.03127741  0.09383223 -0.03127741       0.018
   0.04691612  0.10947094 -0.04691612       0.018
  -0.10947094 -0.04691612  0.10947094       0.018
  -0.09383223 -0.03127741  0.09383223       0.018
  -0.07819353 -0.01563871  0.07819353       0.018
  -0.06255482  0.00000000  0.06255482       0.009
   0.00000000  0.09383223  0.00000000       0.005
   0.01563871  0.10947094 -0.01563871       0.018
   0.03127741  0.12510964 -0.03127741       0.018
  -0.12510964 -0.03127741  0.12510964       0.018
  -0.10947094 -0.01563871  0.10947094       0.018
  -0.09383223  0.00000000  0.09383223       0.009
   0.00000000  0.12510964  0.00000000       0.005
   0.01563871  0.14074835 -0.01563871       0.018
  -0.14074835 -0.01563871  0.14074835       0.018
  -0.12510964  0.00000000  0.12510964       0.009
   0.00000000  0.15638705  0.00000000       0.005
  -0.15638705  0.00000000  0.15638705       0.009
   0.03127741  0.06255482  0.00000000       0.018
   0.04691612  0.07819353 -0.01563871       0.036
   0.06255482  0.09383223 -0.03127741       0.036
  -0.09383223 -0.06255482  0.12510964       0.036
   0.03127741  0.09383223  0.00000000       0.018
   0.04691612  0.10947094 -0.01563871       0.036
  -0.10947094 -0.04691612  0.14074835       0.036
  -0.09383223 -0.03127741  0.12510964       0.036
  -0.07819353 -0.01563871  0.10947094       0.036
  -0.06255482  0.00000000  0.09383223       0.018
   0.03127741  0.12510964  0.00000000       0.018
  -0.12510964 -0.03127741  0.15638705       0.036
  -0.10947094 -0.01563871  0.14074835       0.036
  -0.09383223  0.00000000  0.12510964       0.018
  -0.14074835 -0.01563871  0.17202576       0.018
  -0.12510964  0.00000000  0.15638705       0.018
  -0.10947094 -0.04691612  0.17202576       0.018
  -0.09383223 -0.03127741  0.15638705       0.036
  -0.10947094 -0.01563871  0.17202576       0.018
  -0.09383223  0.00000000  0.15638705       0.018
 
 k-points in reciprocal lattice and weights: Automatic mesh                          
   0.00000000  0.00000000  0.00000000       0.001
   0.09090909  0.00000000  0.00000000       0.006
   0.18181818  0.00000000  0.00000000       0.006
   0.27272727  0.00000000  0.00000000       0.006
   0.36363636  0.00000000  0.00000000       0.006
   0.45454545  0.00000000  0.00000000       0.006
   0.09090909  0.09090909  0.00000000       0.005
   0.18181818  0.09090909  0.00000000       0.018
   0.27272727  0.09090909  0.00000000       0.018
   0.36363636  0.09090909  0.00000000       0.018
   0.45454545  0.09090909  0.00000000       0.018
  -0.45454545  0.09090909  0.00000000       0.018
  -0.36363636  0.09090909  0.00000000       0.018
  -0.27272727  0.09090909  0.00000000       0.018
  -0.18181818  0.09090909  0.00000000       0.018
  -0.09090909  0.09090909  0.00000000       0.009
   0.18181818  0.18181818  0.00000000       0.005
   0.27272727  0.18181818  0.00000000       0.018
   0.36363636  0.18181818  0.00000000       0.018
   0.45454545  0.18181818  0.00000000       0.018
  -0.45454545  0.18181818  0.00000000       0.018
  -0.36363636  0.18181818  0.00000000       0.018
  -0.27272727  0.18181818  0.00000000       0.018
  -0.18181818  0.18181818  0.00000000       0.009
   0.27272727  0.27272727  0.00000000       0.005
   0.36363636  0.27272727  0.00000000       0.018
   0.45454545  0.27272727  0.00000000       0.018
  -0.45454545  0.27272727  0.00000000       0.018
  -0.36363636  0.27272727  0.00000000       0.018
  -0.27272727  0.27272727  0.00000000       0.009
   0.36363636  0.36363636  0.00000000       0.005
   0.45454545  0.36363636  0.00000000       0.018
  -0.45454545  0.36363636  0.00000000       0.018
  -0.36363636  0.36363636  0.00000000       0.009
   0.45454545  0.45454545  0.00000000       0.005
  -0.45454545  0.45454545  0.00000000       0.009
   0.27272727  0.18181818  0.09090909       0.018
   0.36363636  0.18181818  0.09090909       0.036
   0.45454545  0.18181818  0.09090909       0.036
  -0.45454545  0.18181818  0.09090909       0.036
   0.36363636  0.27272727  0.09090909       0.018
   0.45454545  0.27272727  0.09090909       0.036
  -0.45454545  0.27272727  0.09090909       0.036
  -0.36363636  0.27272727  0.09090909       0.036
  -0.27272727  0.27272727  0.09090909       0.036
  -0.18181818  0.27272727  0.09090909       0.018
   0.45454545  0.36363636  0.09090909       0.018
  -0.45454545  0.36363636  0.09090909       0.036
  -0.36363636  0.36363636  0.09090909       0.036
  -0.27272727  0.36363636  0.09090909       0.018
  -0.45454545  0.45454545  0.09090909       0.018
  -0.36363636  0.45454545  0.09090909       0.018
  -0.45454545  0.36363636  0.18181818       0.018
  -0.36363636  0.36363636  0.18181818       0.036
  -0.36363636  0.45454545  0.18181818       0.018
  -0.27272727  0.45454545  0.18181818       0.018
 
 position of ions in fractional coordinates (direct lattice) 
   0.50000000  0.50000000  0.50000000
   0.25000000  0.25000000  0.25000000
   0.75000000  0.75000000  0.75000000
   0.00000000  0.00000000  0.00000000
 
 position of ions in cartesian coordinates  (Angst):
   2.90654146  2.90654146  2.90654146
   1.45327073  1.45327073  1.45327073
   4.35981219  4.35981219  4.35981219
   0.00000000  0.00000000  0.00000000
 


--------------------------------------------------------------------------------------------------------


 k-point  1 :  0.00000.00000.0000  plane waves:     537
 k-point  2 :  0.09090.00000.0000  plane waves:     555
 k-point  3 :  0.18180.00000.0000  plane waves:     564
 k-point  4 :  0.27270.00000.0000  plane waves:     570
 k-point  5 :  0.36360.00000.0000  plane waves:     571
 k-point  6 :  0.45450.00000.0000  plane waves:     571
 k-point  7 :  0.09090.09090.0000  plane waves:     556
 k-point  8 :  0.18180.09090.0000  plane waves:     564
 k-point  9 :  0.27270.09090.0000  plane waves:     566
 k-point 10 :  0.36360.09090.0000  plane waves:     567
 k-point 11 :  0.45450.09090.0000  plane waves:     572
 k-point 12 :  -.45450.09090.0000  plane waves:     573
 k-point 13 :  -.36360.09090.0000  plane waves:     574
 k-point 14 :  -.27270.09090.0000  plane waves:     571
 k-point 15 :  -.18180.09090.0000  plane waves:     568
 k-point 16 :  -.09090.09090.0000  plane waves:     559
 k-point 17 :  0.18180.18180.0000  plane waves:     568
 k-point 18 :  0.27270.18180.0000  plane waves:     570
 k-point 19 :  0.36360.18180.0000  plane waves:     569
 k-point 20 :  0.45450.18180.0000  plane waves:     569
 k-point 21 :  -.45450.18180.0000  plane waves:     570
 k-point 22 :  -.36360.18180.0000  plane waves:     561
 k-point 23 :  -.27270.18180.0000  plane waves:     569
 k-point 24 :  -.18180.18180.0000  plane waves:     558
 k-point 25 :  0.27270.27270.0000  plane waves:     568
 k-point 26 :  0.36360.27270.0000  plane waves:     568
 k-point 27 :  0.45450.27270.0000  plane waves:     566
 k-point 28 :  -.45450.27270.0000  plane waves:     565
 k-point 29 :  -.36360.27270.0000  plane waves:     567
 k-point 30 :  -.27270.27270.0000  plane waves:     562
 k-point 31 :  0.36360.36360.0000  plane waves:     568
 k-point 32 :  0.45450.36360.0000  plane waves:     568
 k-point 33 :  -.45450.36360.0000  plane waves:     568
 k-point 34 :  -.36360.36360.0000  plane waves:     568
 k-point 35 :  0.45450.45450.0000  plane waves:     572
 k-point 36 :  -.45450.45450.0000  plane waves:     568
 k-point 37 :  0.27270.18180.0909  plane waves:     563
 k-point 38 :  0.36360.18180.0909  plane waves:     566
 k-point 39 :  0.45450.18180.0909  plane waves:     570
 k-point 40 :  -.45450.18180.0909  plane waves:     566
 k-point 41 :  0.36360.27270.0909  plane waves:     567
 k-point 42 :  0.45450.27270.0909  plane waves:     565
 k-point 43 :  -.45450.27270.0909  plane waves:     565
 k-point 44 :  -.36360.27270.0909  plane waves:     564
 k-point 45 :  -.27270.27270.0909  plane waves:     564
 k-point 46 :  -.18180.27270.0909  plane waves:     572
 k-point 47 :  0.45450.36360.0909  plane waves:     570
 k-point 48 :  -.45450.36360.0909  plane waves:     569
 k-point 49 :  -.36360.36360.0909  plane waves:     558
 k-point 50 :  -.27270.36360.0909  plane waves:     564
 k-point 51 :  -.45450.45450.0909  plane waves:     571
 k-point 52 :  -.36360.45450.0909  plane waves:     562
 k-point 53 :  -.45450.36360.1818  plane waves:     565
 k-point 54 :  -.36360.36360.1818  plane waves:     566
 k-point 55 :  -.36360.45450.1818  plane waves:     563
 k-point 56 :  -.27270.45450.1818  plane waves:     564

 maximum and minimum number of plane-waves per node :       574      537

 maximum number of plane-waves:       574
 maximum index in each direction: 
   IXMAX=    6   IYMAX=    5   IZMAX=    5
   IXMIN=   -6   IYMIN=   -6   IZMIN=   -5

 WARNING: aliasing errors must be expected set NGX to  26 to avoid them
 WARNING: aliasing errors must be expected set NGY to  24 to avoid them
 WARNING: aliasing errors must be expected set NGZ to  22 to avoid them
 aliasing errors are usually negligible using standard VASP settings
 and one can safely disregard these warnings

 serial   3D FFT for wavefunctions
 parallel 3D FFT for charge:
    minimum data exchange during FFTs selected (reduces bandwidth)


 total amount of memory used by VASP on root node    44184. kBytes
========================================================================

   base      :      30000. kBytes
   nonl-proj :       9326. kBytes
   fftplans  :        439. kBytes
   grid      :        917. kBytes
   one-center:         62. kBytes
   wavefun   :       3440. kBytes
 
 Broyden mixing: mesh for mixing (old mesh)
   NGX = 11   NGY = 11   NGZ = 11
  (NGX  = 36   NGY  = 36   NGZ  = 36)
  gives a total of   1331 points

 initial charge density was supplied:
 charge density of overlapping atoms calculated
 number of electron      36.0000000 magnetization 
 keeping initial charge density in first step


--------------------------------------------------------------------------------------------------------


 Maximum index for augmentation-charges         1129 (set IRDMAX)


--------------------------------------------------------------------------------------------------------


 First call to EWALD:  gamma=   0.484
 Maximum number of real-space cells 3x 3x 3
 Maximum number of reciprocal cells 3x 3x 3

    FEWALD:  cpu time    0.00: real time    0.00


----------------------------------------- Iteration    1(   1)  ---------------------------------------


    POTLOK:  cpu time    0.01: real time    0.01
    SETDIJ:  cpu time    0.00: real time    0.00
     EDDAV:  cpu time    0.44: real time    0.44
       DOS:  cpu time    0.00: real time    0.00
    --------------------------------------------
      LOOP:  cpu time    0.47: real time    0.48

 eigenvalue-minimisations  :  2776
 total energy-change (2. order) : 0.1974345E+03  (-0.1101684E+04)
 number of electron      36.0000000 magnetization 
 augmentation part       36.0000000 magnetization 

 Free energy of the ion-electron system (eV)
  ---------------------------------------------------
  alpha Z        PSCENC =       145.39149695
  Ewald energy   TEWEN  =     -3140.01425398
  -1/2 Hartree   DENC   =     -1319.45682230
  -exchange  EXHF       =         0.00000000
  -V(xc)+E(xc)   XCENC  =       111.73069210
  PAW double counting   =      3750.82013676    -4036.39102214
  entropy T*S    EENTRO =         0.00718988
  eigenvalues    EBANDS =       459.00278788
  atomic energy  EATOM  =      4226.34430227
  ---------------------------------------------------
  free energy    TOTEN  =       197.43450742 eV

  energy without entropy =      197.42731754  energy(sigma->0) =      197.43211079


--------------------------------------------------------------------------------------------------------




----------------------------------------- Iteration    1(   2)  ---------------------------------------


     EDDAV:  cpu time    0.43: real time    0.43
       DOS:  cpu time    0.00: real time    0.00
    --------------------------------------------
      LOOP:  cpu time    0.43: real time    0.43

 eigenvalue-minimisations  :  2688
 total energy-change (2. order) :-0.2066965E+03  (-0.1985156E+03)
 number of electron      36.0000000 magnetization 
 augmentation part       36.0000000 magnetization 

 Free energy of the ion-electron system (eV)
  ---------------------------------------------------
  alpha Z        PSCENC =       145.39149695
  Ewald energy   TEWEN  =     -3140.01425398
  -1/2 Hartree   DENC   =     -1319.45682230
  -exchange  EXHF       =         0.00000000
  -V(xc)+E(xc)   XCENC  =       111.73069210
  PAW double counting   =      3750.82013676    -4036.39102214
  entropy T*S    EENTRO =         0.00289415
  eigenvalues    EBANDS =       252.31053834
  atomic energy  EATOM  =      4226.34430227
  ---------------------------------------------------
  free energy    TOTEN  =        -9.26203785 eV

  energy without entropy =       -9.26493200  energy(sigma->0) =       -9.26300256


--------------------------------------------------------------------------------------------------------




----------------------------------------- Iteration    1(   3)  ---------------------------------------


     EDDAV:  cpu time    0.54: real time    0.53
       DOS:  cpu time    0.00: real time    0.00
    --------------------------------------------
      LOOP:  cpu time    0.54: real time    0.54

 eigenvalue-minimisations  :  3376
 total energy-change (2. order) :-0.1011655E+02  (-0.9716679E+01)
 number of electron      36.0000000 magnetization 
 augmentation part       36.0000000 magnetization 

 Free energy of the ion-electron system (eV)
  ---------------------------------------------------
  alpha Z        PSCENC =       145.39149695
  Ewald energy   TEWEN  =     -3140.01425398
  -1/2 Hartree   DENC   =     -1319.45682230
  -exchange  EXHF       =         0.00000000
  -V(xc)+E(xc)   XCENC  =       111.73069210
  PAW double counting   =      3750.82013676    -4036.39102214
  entropy T*S    EENTRO =         0.00425284
  eigenvalues    EBANDS =       242.19263374
  atomic energy  EATOM  =      4226.34430227
  ---------------------------------------------------
  free energy    TOTEN  =       -19.37858376 eV

  energy without entropy =      -19.38283660  energy(sigma->0) =      -19.38000137


--------------------------------------------------------------------------------------------------------




----------------------------------------- Iteration    1(   4)  ---------------------------------------


     EDDAV:  cpu time    0.59: real time    0.60
       DOS:  cpu time    0.00: real time    0.00
    --------------------------------------------
      LOOP:  cpu time    0.59: real time    0.60

 eigenvalue-minimisations  :  3872
 total energy-change (2. order) :-0.1544264E+00  (-0.1543522E+00)
 number of electron      36.0000000 magnetization 
 augmentation part       36.0000000 magnetization 

 Free energy of the ion-electron system (eV)
  ---------------------------------------------------
  alpha Z        PSCENC =       145.39149695
  Ewald energy   TEWEN  =     -3140.01425398
  -1/2 Hartree   DENC   =     -1319.45682230
  -exchange  EXHF       =         0.00000000
  -V(xc)+E(xc)   XCENC  =       111.73069210
  PAW double counting   =      3750.82013676    -4036.39102214
  entropy T*S    EENTRO =         0.00427723
  eigenvalues    EBANDS =       242.03818295
  atomic energy  EATOM  =      4226.34430227
  ---------------------------------------------------
  free energy    TOTEN  =       -19.53301016 eV

  energy without entropy =      -19.53728739  energy(sigma->0) =      -19.53443590


--------------------------------------------------------------------------------------------------------




----------------------------------------- Iteration    1(   5)  ---------------------------------------


     EDDAV:  cpu time    0.64: real time    0.65
       DOS:  cpu time    0.00: real time    0.00
    CHARGE:  cpu time    0.04: real time    0.03
    MIXING:  cpu time    0.00: real time    0.00
    --------------------------------------------
      LOOP:  cpu time    0.69: real time    0.69

 eigenvalue-minimisations  :  4208
 total energy-change (2. order) :-0.2037977E-02  (-0.2037893E-02)
 number of electron      36.0000235 magnetization 
 augmentation part       18.9567772 magnetization 

 Broyden mixing:
  rms(total) = 0.16270E+01    rms(broyden)= 0.16265E+01
  rms(prec ) = 0.42295E+01
  weight for this iteration     100.00

 Free energy of the ion-electron system (eV)
  ---------------------------------------------------
  alpha Z        PSCENC =       145.39149695
  Ewald energy   TEWEN  =     -3140.01425398
  -1/2 Hartree   DENC   =     -1319.45682230
  -exchange  EXHF       =         0.00000000
  -V(xc)+E(xc)   XCENC  =       111.73069210
  PAW double counting   =      3750.82013676    -4036.39102214
  entropy T*S    EENTRO =         0.00427857
  eigenvalues    EBANDS =       242.03614363
  atomic energy  EATOM  =      4226.34430227
  ---------------------------------------------------
  free energy    TOTEN  =       -19.53504813 eV

  energy without entropy =      -19.53932671  energy(sigma->0) =      -19.53647433


--------------------------------------------------------------------------------------------------------




----------------------------------------- Iteration    1(   6)  ---------------------------------------


    POTLOK:  cpu time    0.00: real time    0.01
    SETDIJ:  cpu time    0.01: real time    0.00
    EDDIAG:  cpu time    0.09: real time    0.09
  RMM-DIIS:  cpu time    0.24: real time    0.25
    ORTHCH:  cpu time    0.02: real time    0.02
       DOS:  cpu time    0.00: real time    0.00
    CHARGE:  cpu time    0.03: real time    0.03
    MIXING:  cpu time    0.00: real time    0.00
    --------------------------------------------
      LOOP:  cpu time    0.39: real time    0.40

 eigenvalue-minimisations  :  2689
 total energy-change (2. order) : 0.1147797E+01  (-0.4832445E+01)
 number of electron      36.0000305 magnetization 
 augmentation part       22.4179285 magnetization 

 Broyden mixing:
  rms(total) = 0.10894E+01    rms(broyden)= 0.10890E+01
  rms(prec ) = 0.26693E+01
  weight for this iteration     100.00

 eigenvalues of (default mixing * dielectric matrix)
  average eigenvalue GAMMA=   0.5997
  0.5997

 Free energy of the ion-electron system (eV)
  ---------------------------------------------------
  alpha Z        PSCENC =       145.39149695
  Ewald energy   TEWEN  =     -3140.01425398
  -1/2 Hartree   DENC   =     -1205.11649286
  -exchange  EXHF       =         0.00000000
  -V(xc)+E(xc)   XCENC  =       106.62636902
  PAW double counting   =      3818.85512357    -4081.86655386
  entropy T*S    EENTRO =         0.00328980
  eigenvalues    EBANDS =       111.38946830
  atomic energy  EATOM  =      4226.34430227
  ---------------------------------------------------
  free energy    TOTEN  =       -18.38725080 eV

  energy without entropy =      -18.39054060  energy(sigma->0) =      -18.38834740


--------------------------------------------------------------------------------------------------------




----------------------------------------- Iteration    1(   7)  ---------------------------------------


    POTLOK:  cpu time    0.01: real time    0.01
    SETDIJ:  cpu time    0.00: real time    0.00
    EDDIAG:  cpu time    0.10: real time    0.09
  RMM-DIIS:  cpu time    0.24: real time    0.25
    ORTHCH:  cpu time    0.02: real time    0.02
       DOS:  cpu time    0.00: real time    0.00
    CHARGE:  cpu time    0.03: real time    0.03
    MIXING:  cpu time    0.00: real time    0.00
    --------------------------------------------
      LOOP:  cpu time    0.40: real time    0.40

 eigenvalue-minimisations  :  2705
 total energy-change (2. order) : 0.2776219E+01  (-0.9690910E+00)
 number of electron      36.0000278 magnetization 
 augmentation part       20.9206687 magnetization 

 Broyden mixing:
  rms(total) = 0.11587E+00    rms(broyden)= 0.11560E+00
  rms(prec ) = 0.28161E+00
  weight for this iteration     100.00

 eigenvalues of (default mixing * dielectric matrix)
  average eigenvalue GAMMA=   1.2160
  0.5873  1.8446

 Free energy of the ion-electron system (eV)
  ---------------------------------------------------
  alpha Z        PSCENC =       145.39149695
  Ewald energy   TEWEN  =     -3140.01425398
  -1/2 Hartree   DENC   =     -1248.08397722
  -exchange  EXHF       =         0.00000000
  -V(xc)+E(xc)   XCENC  =       108.62848601
  PAW double counting   =      3949.03341503    -4231.83409518
  entropy T*S    EENTRO =         0.00292614
  eigenvalues    EBANDS =       174.92066825
  atomic energy  EATOM  =      4226.34430227
  ---------------------------------------------------
  free energy    TOTEN  =       -15.61103174 eV

  energy without entropy =      -15.61395788  energy(sigma->0) =      -15.61200712


--------------------------------------------------------------------------------------------------------




----------------------------------------- Iteration    1(   8)  ---------------------------------------


    POTLOK:  cpu time    0.01: real time    0.01
    SETDIJ:  cpu time    0.00: real time    0.00
    EDDIAG:  cpu time    0.09: real time    0.09
  RMM-DIIS:  cpu time    0.25: real time    0.25
    ORTHCH:  cpu time    0.02: real time    0.02
       DOS:  cpu time    0.00: real time    0.00
    CHARGE:  cpu time    0.03: real time    0.03
    MIXING:  cpu time    0.00: real time    0.00
    --------------------------------------------
      LOOP:  cpu time    0.40: real time    0.40

 eigenvalue-minimisations  :  2710
 total energy-change (2. order) : 0.2046229E-01  (-0.1702753E-01)
 number of electron      36.0000277 magnetization 
 augmentation part       20.8658025 magnetization 

 Broyden mixing:
  rms(total) = 0.82954E-01    rms(broyden)= 0.82921E-01
  rms(prec ) = 0.21494E+00
  weight for this iteration     100.00

 eigenvalues of (default mixing * dielectric matrix)
  average eigenvalue GAMMA=   1.2013
  2.1628  0.8204  0.6205

 Free energy of the ion-electron system (eV)
  ---------------------------------------------------
  alpha Z        PSCENC =       145.39149695
  Ewald energy   TEWEN  =     -3140.01425398
  -1/2 Hartree   DENC   =     -1243.47853273
  -exchange  EXHF       =         0.00000000
  -V(xc)+E(xc)   XCENC  =       108.43848423
  PAW double counting   =      4101.49299091    -4391.55888939
  entropy T*S    EENTRO =         0.00285437
  eigenvalues    EBANDS =       177.79097791
  atomic energy  EATOM  =      4226.34430227
  ---------------------------------------------------
  free energy    TOTEN  =       -15.59056946 eV

  energy without entropy =      -15.59342383  energy(sigma->0) =      -15.59152091


--------------------------------------------------------------------------------------------------------




----------------------------------------- Iteration    1(   9)  ---------------------------------------


    POTLOK:  cpu time    0.01: real time    0.01
    SETDIJ:  cpu time    0.00: real time    0.00
    EDDIAG:  cpu time    0.09: real time    0.09
  RMM-DIIS:  cpu time    0.25: real time    0.25
    ORTHCH:  cpu time    0.02: real time    0.02
       DOS:  cpu time    0.00: real time    0.00
    CHARGE:  cpu time    0.03: real time    0.03
    MIXING:  cpu time    0.00: real time    0.00
    --------------------------------------------
      LOOP:  cpu time    0.40: real time    0.40

 eigenvalue-minimisations  :  2709
 total energy-change (2. order) : 0.1062678E-01  (-0.2124411E-02)
 number of electron      36.0000278 magnetization 
 augmentation part       20.9374205 magnetization 

 Broyden mixing:
  rms(total) = 0.30012E-01    rms(broyden)= 0.30006E-01
  rms(prec ) = 0.78316E-01
  weight for this iteration     100.00

 eigenvalues of (default mixing * dielectric matrix)
  average eigenvalue GAMMA=   1.0344
  2.2343  0.8836  0.6188  0.4010

 Free energy of the ion-electron system (eV)
  ---------------------------------------------------
  alpha Z        PSCENC =       145.39149695
  Ewald energy   TEWEN  =     -3140.01425398
  -1/2 Hartree   DENC   =     -1238.62727492
  -exchange  EXHF       =         0.00000000
  -V(xc)+E(xc)   XCENC  =       108.23210398
  PAW double counting   =      4167.73071093    -4459.60026042
  entropy T*S    EENTRO =         0.00300604
  eigenvalues    EBANDS =       174.96022648
  atomic energy  EATOM  =      4226.34430227
  ---------------------------------------------------
  free energy    TOTEN  =       -15.57994268 eV

  energy without entropy =      -15.58294872  energy(sigma->0) =      -15.58094469


--------------------------------------------------------------------------------------------------------




----------------------------------------- Iteration    1(  10)  ---------------------------------------


    POTLOK:  cpu time    0.01: real time    0.01
    SETDIJ:  cpu time    0.00: real time    0.00
    EDDIAG:  cpu time    0.09: real time    0.09
  RMM-DIIS:  cpu time    0.25: real time    0.25
    ORTHCH:  cpu time    0.02: real time    0.02
       DOS:  cpu time    0.00: real time    0.00
    CHARGE:  cpu time    0.03: real time    0.03
    MIXING:  cpu time    0.00: real time    0.00
    --------------------------------------------
      LOOP:  cpu time    0.40: real time    0.40

 eigenvalue-minimisations  :  2717
 total energy-change (2. order) : 0.1262740E-02  (-0.4362539E-03)
 number of electron      36.0000278 magnetization 
 augmentation part       20.9479345 magnetization 

 Broyden mixing:
  rms(total) = 0.96294E-02    rms(broyden)= 0.96267E-02
  rms(prec ) = 0.13098E-01
  weight for this iteration     100.00

 eigenvalues of (default mixing * dielectric matrix)
  average eigenvalue GAMMA=   1.4304
  2.5703  2.5703  0.9984  0.6092  0.4038

 Free energy of the ion-electron system (eV)
  ---------------------------------------------------
  alpha Z        PSCENC =       145.39149695
  Ewald energy   TEWEN  =     -3140.01425398
  -1/2 Hartree   DENC   =     -1238.00959368
  -exchange  EXHF       =         0.00000000
  -V(xc)+E(xc)   XCENC  =       108.20690354
  PAW double counting   =      4175.33738983    -4467.33800905
  entropy T*S    EENTRO =         0.00295169
  eigenvalues    EBANDS =       174.50013251
  atomic energy  EATOM  =      4226.34430227
  ---------------------------------------------------
  free energy    TOTEN  =       -15.57867994 eV

  energy without entropy =      -15.58163163  energy(sigma->0) =      -15.57966383


--------------------------------------------------------------------------------------------------------




----------------------------------------- Iteration    1(  11)  ---------------------------------------


    POTLOK:  cpu time    0.01: real time    0.01
    SETDIJ:  cpu time    0.00: real time    0.00
    EDDIAG:  cpu time    0.09: real time    0.09
  RMM-DIIS:  cpu time    0.30: real time    0.30
    ORTHCH:  cpu time    0.01: real time    0.02
       DOS:  cpu time    0.01: real time    0.00
    CHARGE:  cpu time    0.03: real time    0.03
    MIXING:  cpu time    0.00: real time    0.00
    --------------------------------------------
      LOOP:  cpu time    0.45: real time    0.45

 eigenvalue-minimisations  :  3168
 total energy-change (2. order) :-0.5406443E-04  (-0.6255709E-04)
 number of electron      36.0000278 magnetization 
 augmentation part       20.9539273 magnetization 

 Broyden mixing:
  rms(total) = 0.25016E-02    rms(broyden)= 0.24996E-02
  rms(prec ) = 0.49854E-02
  weight for this iteration     100.00

 eigenvalues of (default mixing * dielectric matrix)
  average eigenvalue GAMMA=   1.3863
  2.6021  2.6021  0.6090  1.0489  1.0489  0.4070

 Free energy of the ion-electron system (eV)
  ---------------------------------------------------
  alpha Z        PSCENC =       145.39149695
  Ewald energy   TEWEN  =     -3140.01425398
  -1/2 Hartree   DENC   =     -1238.05490796
  -exchange  EXHF       =         0.00000000
  -V(xc)+E(xc)   XCENC  =       108.21738593
  PAW double counting   =      4171.34601449    -4463.05177702
  entropy T*S    EENTRO =         0.00295393
  eigenvalues    EBANDS =       174.24005140
  atomic energy  EATOM  =      4226.34430227
  ---------------------------------------------------
  free energy    TOTEN  =       -15.57873400 eV

  energy without entropy =      -15.58168793  energy(sigma->0) =      -15.57971864


--------------------------------------------------------------------------------------------------------




----------------------------------------- Iteration    1(  12)  ---------------------------------------


    POTLOK:  cpu time    0.01: real time    0.01
    SETDIJ:  cpu time    0.00: real time    0.00
    EDDIAG:  cpu time    0.10: real time    0.09
  RMM-DIIS:  cpu time    0.27: real time    0.29
    ORTHCH:  cpu time    0.01: real time    0.02
       DOS:  cpu time    0.01: real time    0.00
    CHARGE:  cpu time    0.03: real time    0.03
    MIXING:  cpu time    0.00: real time    0.00
    --------------------------------------------
      LOOP:  cpu time    0.43: real time    0.44

 eigenvalue-minimisations  :  2928
 total energy-change (2. order) : 0.5139012E-05  (-0.4562205E-05)
 number of electron      36.0000278 magnetization 
 augmentation part       20.9518275 magnetization 

 Broyden mixing:
  rms(total) = 0.76467E-03    rms(broyden)= 0.76437E-03
  rms(prec ) = 0.10581E-02
  weight for this iteration     100.00

 eigenvalues of (default mixing * dielectric matrix)
  average eigenvalue GAMMA=   1.6744
  3.8774  2.4309  2.4309  0.6089  0.9829  0.9829  0.4070

 Free energy of the ion-electron system (eV)
  ---------------------------------------------------
  alpha Z        PSCENC =       145.39149695
  Ewald energy   TEWEN  =     -3140.01425398
  -1/2 Hartree   DENC   =     -1238.12475384
  -exchange  EXHF       =         0.00000000
  -V(xc)+E(xc)   XCENC  =       108.22163363
  PAW double counting   =      4171.00661423    -4462.72731342
  entropy T*S    EENTRO =         0.00295200
  eigenvalues    EBANDS =       174.32059330
  atomic energy  EATOM  =      4226.34430227
  ---------------------------------------------------
  free energy    TOTEN  =       -15.57872886 eV

  energy without entropy =      -15.58168086  energy(sigma->0) =      -15.57971286


--------------------------------------------------------------------------------------------------------




----------------------------------------- Iteration    1(  13)  ---------------------------------------


    POTLOK:  cpu time    0.01: real time    0.01
    SETDIJ:  cpu time    0.01: real time    0.00
    EDDIAG:  cpu time    0.09: real time    0.10
  RMM-DIIS:  cpu time    0.24: real time    0.24
    ORTHCH:  cpu time    0.02: real time    0.02
       DOS:  cpu time    0.00: real time    0.00
    CHARGE:  cpu time    0.03: real time    0.03
    MIXING:  cpu time    0.00: real time    0.00
    --------------------------------------------
      LOOP:  cpu time    0.40: real time    0.40

 eigenvalue-minimisations  :  2384
 total energy-change (2. order) :-0.1533668E-05  (-0.6841909E-06)
 number of electron      36.0000278 magnetization 
 augmentation part       20.9511810 magnetization 

 Broyden mixing:
  rms(total) = 0.39160E-03    rms(broyden)= 0.39121E-03
  rms(prec ) = 0.10339E-02
  weight for this iteration     100.00

 eigenvalues of (default mixing * dielectric matrix)
  average eigenvalue GAMMA=   1.4809
  2.7854  2.6718  2.2447  0.6090  0.4069  1.0763  1.0763  0.9769

 Free energy of the ion-electron system (eV)
  ---------------------------------------------------
  alpha Z        PSCENC =       145.39149695
  Ewald energy   TEWEN  =     -3140.01425398
  -1/2 Hartree   DENC   =     -1238.13608849
  -exchange  EXHF       =         0.00000000
  -V(xc)+E(xc)   XCENC  =       108.22162602
  PAW double counting   =      4169.64179085    -4461.38101029
  entropy T*S    EENTRO =         0.00295221
  eigenvalues    EBANDS =       174.35045408
  atomic energy  EATOM  =      4226.34430227
  ---------------------------------------------------
  free energy    TOTEN  =       -15.57873040 eV

  energy without entropy =      -15.58168261  energy(sigma->0) =      -15.57971447


--------------------------------------------------------------------------------------------------------




----------------------------------------- Iteration    1(  14)  ---------------------------------------


    POTLOK:  cpu time    0.01: real time    0.01
    SETDIJ:  cpu time    0.01: real time    0.00
    EDDIAG:  cpu time    0.09: real time    0.10
  RMM-DIIS:  cpu time    0.18: real time    0.18
    ORTHCH:  cpu time    0.00: real time    0.02
       DOS:  cpu time    0.02: real time    0.00
    --------------------------------------------
      LOOP:  cpu time    0.31: real time    0.30

 eigenvalue-minimisations  :  1609
 total energy-change (2. order) : 0.3300684E-06  (-0.1200863E-06)
 number of electron      36.0000278 magnetization 
 augmentation part       20.9511810 magnetization 

 Free energy of the ion-electron system (eV)
  ---------------------------------------------------
  alpha Z        PSCENC =       145.39149695
  Ewald energy   TEWEN  =     -3140.01425398
  -1/2 Hartree   DENC   =     -1238.12425917
  -exchange  EXHF       =         0.00000000
  -V(xc)+E(xc)   XCENC  =       108.22107929
  PAW double counting   =      4169.68147101    -4461.41683505
  entropy T*S    EENTRO =         0.00295200
  eigenvalues    EBANDS =       174.33531662
  atomic energy  EATOM  =      4226.34430227
  ---------------------------------------------------
  free energy    TOTEN  =       -15.57873006 eV

  energy without entropy =      -15.58168206  energy(sigma->0) =      -15.57971406


--------------------------------------------------------------------------------------------------------




 average (electrostatic) potential at core
  the test charge radii are     0.9430  1.0406
  (the norm of the test charge is              1.0000)
       1 -63.1042       2 -63.4153       3 -63.4153       4 -71.9415
 
 
 
 E-fermi :   8.5232     XC(G=0): -12.2228     alpha+bet :-14.6835


 k-point   1 :       0.0000    0.0000    0.0000
  band No.  band energies     occupation 
      1      -2.0140      2.00000
      2       3.8480      2.00000
      3       3.8480      2.00000
      4       3.9113      2.00000
      5       3.9113      2.00000
      6       3.9113      2.00000
      7       4.7316      2.00000
      8       4.7316      2.00000
      9       4.7316      2.00000
     10       5.7028      2.00000
     11       5.7028      2.00000
     12       5.7028      2.00000
     13       5.8683      2.00000
     14       5.8683      2.00000
     15       5.9948      2.00000
     16       5.9948      2.00000
     17      12.1961      0.00000
     18      12.1961      0.00000
     19      12.1962      0.00000
     20      12.5080      0.00000
     21      12.5080      0.00000
     22      12.5080      0.00000
     23      13.4292      0.00000
     24      14.8908      0.00000

 k-point   2 :       0.0909    0.0000    0.0000
  band No.  band energies     occupation 
      1      -1.9009      2.00000
      2       3.8089      2.00000
      3       3.8089      2.00000
      4       3.8640      2.00000
      5       3.9944      2.00000
      6       3.9944      2.00000
      7       4.7218      2.00000
      8       4.7218      2.00000
      9       4.7369      2.00000
     10       5.6149      2.00000
     11       5.6357      2.00000
     12       5.6358      2.00000
     13       5.9061      2.00000
     14       5.9061      2.00000
     15       5.9865      2.00000
     16       5.9865      2.00000
     17      10.6388      0.00000
     18      11.7189      0.00000
     19      11.7190      0.00000
     20      12.7448      0.00000
     21      13.0474      0.00000
     22      13.0476      0.00000
     23      14.1343      0.00000
     24      14.9175      0.00000

 k-point   3 :       0.1818    0.0000    0.0000
  band No.  band energies     occupation 
      1      -1.5645      2.00000
      2       3.7247      2.00000
      3       3.8000      2.00000
      4       3.8000      2.00000
      5       4.1339      2.00000
      6       4.1339      2.00000
      7       4.6933      2.00000
      8       4.6985      2.00000
      9       4.6986      2.00000
     10       5.4121      2.00000
     11       5.5012      2.00000
     12       5.5012      2.00000
     13       5.9379      2.00000
     14       5.9380      2.00000
     15       5.9858      2.00000
     16       5.9859      2.00000
     17       8.9673     -0.00736
     18      11.2755      0.00000
     19      11.2756      0.00000
     20      12.4934      0.00000
     21      13.1977      0.00000
     22      13.1978      0.00000
     23      14.4113      0.00000
     24      14.8922      0.00000

 k-point   4 :       0.2727    0.0000    0.0000
  band No.  band energies     occupation 
      1      -1.0146      2.00000
      2       3.3976      2.00000
      3       3.8388      2.00000
      4       3.8389      2.00000
      5       4.2804      2.00000
      6       4.2804      2.00000
      7       4.5116      2.00000
      8       4.6758      2.00000
      9       4.6758      2.00000
     10       5.2655      2.00000
     11       5.3412      2.00000
     12       5.3413      2.00000
     13       5.9189      2.00000
     14       5.9189      2.00000
     15       6.0131      2.00000
     16       6.0132      2.00000
     17       7.6405      2.00000
     18      11.0126      0.00000
     19      11.0127      0.00000
     20      12.2523      0.00000
     21      12.5895      0.00000
     22      12.5896      0.00000
     23      14.2073      0.00000
     24      15.8186      0.00000

 k-point   5 :       0.3636    0.0000    0.0000
  band No.  band energies     occupation 
      1      -0.2712      2.00000
      2       2.6889      2.00000
      3       3.9037      2.00000
      4       3.9037      2.00000
      5       4.3870      2.00000
      6       4.3919      2.00000
      7       4.3920      2.00000
      8       4.6756      2.00000
      9       4.6757      2.00000
     10       5.1842      2.00000
     11       5.1843      2.00000
     12       5.2038      2.00000
     13       5.8976      2.00000
     14       5.8977      2.00000
     15       6.0295      2.00000
     16       6.0296      2.00000
     17       6.7690      2.00000
     18      10.9420      0.00000
     19      10.9421      0.00000
     20      11.9338      0.00000
     21      11.9339      0.00000
     22      12.0800      0.00000
     23      14.0219      0.00000
     24      15.7731      0.00000

 k-point   6 :       0.4545    0.0000    0.0000
  band No.  band energies     occupation 
      1       0.6101      2.00000
      2       1.7367      2.00000
      3       3.9560      2.00000
      4       3.9561      2.00000
      5       4.3936      2.00000
      6       4.4417      2.00000
      7       4.4417      2.00000
      8       4.6948      2.00000
      9       4.6949      2.00000
     10       5.0780      2.00000
     11       5.0782      2.00000
     12       5.1473      2.00000
     13       5.8846      2.00000
     14       5.8847      2.00000
     15       6.0345      2.00000
     16       6.0347      2.00000
     17       6.3588      2.00000
     18      11.0599      0.00000
     19      11.0601      0.00000
     20      11.4307      0.00000
     21      11.4308      0.00000
     22      11.9914      0.00000
     23      13.9253      0.00000
     24      15.3694      0.00000

 k-point   7 :       0.0909    0.0909    0.0000
  band No.  band energies     occupation 
      1      -1.8633      2.00000
      2       3.6989      2.00000
      3       3.8904      2.00000
      4       3.9548      2.00000
      5       3.9548      2.00000
      6       3.9890      2.00000
      7       4.6688      2.00000
      8       4.7547      2.00000
      9       4.7547      2.00000
     10       5.5683      2.00000
     11       5.6454      2.00000
     12       5.6454      2.00000
     13       5.8655      2.00000
     14       5.9371      2.00000
     15       5.9648      2.00000
     16       5.9996      2.00000
     17      10.9648      0.00000
     18      10.9648      0.00000
     19      11.7865      0.00000
     20      11.8347      0.00000
     21      13.5624      0.00000
     22      13.6511      0.00000
     23      13.6512      0.00000
     24      14.6405      0.00000

 k-point   8 :       0.1818    0.0909    0.0000
  band No.  band energies     occupation 
      1      -1.6016      2.00000
      2       3.5934      2.00000
      3       3.8961      2.00000
      4       3.9193      2.00000
      5       4.0708      2.00000
      6       4.1146      2.00000
      7       4.5838      2.00000
      8       4.7664      2.00000
      9       4.7717      2.00000
     10       5.4519      2.00000
     11       5.5261      2.00000
     12       5.5386      2.00000
     13       5.8857      2.00000
     14       5.9365      2.00000
     15       5.9747      2.00000
     16       5.9994      2.00000
     17       9.5071      0.00000
     18      10.3824      0.00000
     19      11.4356      0.00000
     20      12.0900      0.00000
     21      12.9608      0.00000
     22      13.6375      0.00000
     23      14.0534      0.00000
     24      15.2480      0.00000

 k-point   9 :       0.2727    0.0909    0.0000
  band No.  band energies     occupation 
      1      -1.1234      2.00000
      2       3.4339      2.00000
      3       3.8636      2.00000
      4       3.9249      2.00000
      5       4.2159      2.00000
      6       4.2700      2.00000
      7       4.4441      2.00000
      8       4.7069      2.00000
      9       4.7793      2.00000
     10       5.2933      2.00000
     11       5.3762      2.00000
     12       5.3963      2.00000
     13       5.8839      2.00000
     14       5.9471      2.00000
     15       5.9649      2.00000
     16       6.0261      2.00000
     17       8.0518      2.00429
     18       9.9991      0.00000
     19      11.0796      0.00000
     20      11.5937      0.00000
     21      13.3678      0.00000
     22      13.7734      0.00000
     23      13.8115      0.00000
     24      15.1172      0.00000

 k-point  10 :       0.3636    0.0909    0.0000
  band No.  band energies     occupation 
      1      -0.4451      2.00000
      2       2.9700      2.00000
      3       3.8261      2.00000
      4       3.9761      2.00000
      5       4.3119      2.00000
      6       4.3336      2.00000
      7       4.4217      2.00000
      8       4.6401      2.00000
      9       4.7858      2.00000
     10       5.1655      2.00000
     11       5.2034      2.00000
     12       5.3127      2.00000
     13       5.8684      2.00000
     14       5.9369      2.00000
     15       5.9790      2.00000
     16       6.0404      2.00000
     17       7.0078      2.00000
     18       9.8330      0.00000
     19      10.5619      0.00000
     20      11.2772      0.00000
     21      13.1720      0.00000
     22      13.2635      0.00000
     23      14.7261      0.00000
     24      15.2166      0.00000

 k-point  11 :       0.4545    0.0909    0.0000
  band No.  band energies     occupation 
      1       0.3952      2.00000
      2       2.1180      2.00000
      3       3.8465      2.00000
      4       4.0133      2.00000
      5       4.3054      2.00000
      6       4.4047      2.00000
      7       4.4827      2.00000
      8       4.6758      2.00000
      9       4.7780      2.00000
     10       5.0732      2.00000
     11       5.0807      2.00000
     12       5.2269      2.00000
     13       5.8667      2.00000
     14       5.9133      2.00000
     15       6.0109      2.00000
     16       6.0292      2.00000
     17       6.4363      2.00000
     18       9.8982      0.00000
     19      10.0308      0.00000
     20      11.2598      0.00000
     21      12.7547      0.00000
     22      13.0579      0.00000
     23      14.6697      0.00000
     24      16.2135      0.00000

 k-point  12 :      -0.4545    0.0909    0.0000
  band No.  band energies     occupation 
      1       0.9429      2.00000
      2       1.5480      2.00000
      3       3.8858      2.00000
      4       3.9935      2.00000
      5       4.3089      2.00000
      6       4.4412      2.00000
      7       4.4728      2.00000
      8       4.7250      2.00000
      9       4.7588      2.00000
     10       5.0477      2.00000
     11       5.0657      2.00000
     12       5.1638      2.00000
     13       5.8795      2.00000
     14       5.8973      2.00000
     15       6.0040      2.00000
     16       6.0410      2.00000
     17       6.3040      2.00000
     18       9.6545      0.00000
     19      10.1981      0.00000
     20      11.4045      0.00000
     21      12.3854      0.00000
     22      13.0315      0.00000
     23      14.6829      0.00000
     24      15.0344      0.00000

 k-point  13 :      -0.3636    0.0909    0.0000
  band No.  band energies     occupation 
      1       0.1010      2.00000
      2       2.4338      2.00000
      3       3.9078      2.00000
      4       3.9161      2.00000
      5       4.2856      2.00000
      6       4.4290      2.00000
      7       4.4524      2.00000
      8       4.6313      2.00000
      9       4.7903      2.00000
     10       5.0904      2.00000
     11       5.1331      2.00000
     12       5.2336      2.00000
     13       5.8832      2.00000
     14       5.9042      2.00000
     15       5.9788      2.00000
     16       6.0609      2.00000
     17       6.5838      2.00000
     18       9.4730      0.00000
     19      10.7160      0.00000
     20      11.6821      0.00000
     21      12.1923      0.00000
     22      13.0918      0.00000
     23      14.8221      0.00000
     24      16.2680      0.00000

 k-point  14 :      -0.2727    0.0909    0.0000
  band No.  band energies     occupation 
      1      -0.6921      2.00000
      2       3.1996      2.00000
      3       3.8256      2.00000
      4       3.9404      2.00000
      5       4.2704      2.00000
      6       4.3871      2.00000
      7       4.3935      2.00000
      8       4.5856      2.00000
      9       4.7926      2.00000
     10       5.2039      2.00000
     11       5.2727      2.00000
     12       5.3108      2.00000
     13       5.8829      2.00000
     14       5.9350      2.00000
     15       5.9571      2.00000
     16       6.0598      2.00000
     17       7.3184      2.00000
     18       9.4936      0.00000
     19      11.3973      0.00000
     20      12.0785      0.00000
     21      12.2099      0.00000
     22      13.2398      0.00000
     23      14.9435      0.00000
     24      15.3316      0.00000

 k-point  15 :      -0.1818    0.0909    0.0000
  band No.  band energies     occupation 
      1      -1.3062      2.00000
      2       3.5658      2.00000
      3       3.7651      2.00000
      4       3.9645      2.00000
      5       4.1470      2.00000
      6       4.2443      2.00000
      7       4.5690      2.00000
      8       4.6208      2.00000
      9       4.7910      2.00000
     10       5.3459      2.00000
     11       5.4184      2.00000
     12       5.4281      2.00000
     13       5.8897      2.00000
     14       5.9448      2.00000
     15       5.9660      2.00000
     16       6.0315      2.00000
     17       8.5176      1.04687
     18       9.7079      0.00000
     19      12.0455      0.00000
     20      12.5418      0.00000
     21      12.5520      0.00000
     22      13.4764      0.00000
     23      14.1395      0.00000
     24      14.4378      0.00000

 k-point  16 :      -0.0909    0.0909    0.0000
  band No.  band energies     occupation 
      1      -1.7135      2.00000
      2       3.7252      2.00000
      3       3.7573      2.00000
      4       3.9664      2.00000
      5       3.9980      2.00000
      6       4.1027      2.00000
      7       4.6739      2.00000
      8       4.6959      2.00000
      9       4.7709      2.00000
     10       5.4983      2.00000
     11       5.5445      2.00000
     12       5.5805      2.00000
     13       5.8858      2.00000
     14       5.9618      2.00000
     15       5.9764      2.00000
     16       5.9873      2.00000
     17      10.0592      0.00000
     18      10.1353      0.00000
     19      12.5021      0.00000
     20      12.5486      0.00000
     21      12.9039      0.00000
     22      13.5054      0.00000
     23      13.9521      0.00000
     24      14.0341      0.00000

 k-point  17 :       0.1818    0.1818    0.0000
  band No.  band energies     occupation 
      1      -1.4162      2.00000
      2       3.4341      2.00000
      3       4.0110      2.00000
      4       4.0699      2.00000
      5       4.0795      2.00000
      6       4.0795      2.00000
      7       4.4476      2.00000
      8       4.8351      2.00000
      9       4.8351      2.00000
     10       5.4276      2.00000
     11       5.4989      2.00000
     12       5.4989      2.00000
     13       5.8610      2.00000
     14       5.8783      2.00000
     15       5.9704      2.00000
     16       6.0089      2.00000
     17       9.6647      0.00000
     18       9.6648      0.00000
     19      10.7663      0.00000
     20      11.1879      0.00000
     21      11.7985      0.00000
     22      14.7512      0.00000
     23      14.7512      0.00000
     24      16.1399      0.00000

 k-point  18 :       0.2727    0.1818    0.0000
  band No.  band energies     occupation 
      1      -1.0141      2.00000
      2       3.2853      2.00000
      3       4.0196      2.00000
      4       4.0607      2.00000
      5       4.2008      2.00000
      6       4.2169      2.00000
      7       4.2963      2.00000
      8       4.8541      2.00000
      9       4.8888      2.00000
     10       5.3289      2.00000
     11       5.3734      2.00000
     12       5.4176      2.00000
     13       5.8308      2.00000
     14       5.8761      2.00000
     15       5.9807      2.00000
     16       6.0076      2.00000
     17       8.4908      1.27010
     18       9.1512     -0.00008
     19       9.9805      0.00000
     20      11.1375      0.00000
     21      11.9512      0.00000
     22      14.9001      0.00000
     23      14.9956      0.00000
     24      16.4213      0.00000

 k-point  19 :       0.3636    0.1818    0.0000
  band No.  band energies     occupation 
      1      -0.4098      2.00000
      2       3.0686      2.00000
      3       3.8479      2.00000
      4       4.1145      2.00000
      5       4.1550      2.00000
      6       4.3125      2.00000
      7       4.4159      2.00000
      8       4.7660      2.00000
      9       4.9277      2.00000
     10       5.1677      2.00000
     11       5.2009      2.00000
     12       5.4027      2.00000
     13       5.8113      2.00000
     14       5.9170      2.00000
     15       5.9758      2.00000
     16       6.0078      2.00000
     17       7.2957      2.00000
     18       8.8712     -0.03367
     19       9.2408      0.00000
     20      11.0051      0.00000
     21      13.0816      0.00000
     22      14.6819      0.00000
     23      14.7370      0.00000
     24      16.2748      0.00000

 k-point  20 :       0.4545    0.1818    0.0000
  band No.  band energies     occupation 
      1       0.3644      2.00000
      2       2.5322      2.00000
      3       3.6663      2.00000
      4       4.1404      2.00000
      5       4.1553      2.00000
      6       4.3815      2.00000
      7       4.5857      2.00000
      8       4.6598      2.00000
      9       4.9243      2.00000
     10       5.0436      2.00000
     11       5.0879      2.00000
     12       5.3577      2.00000
     13       5.8156      2.00000
     14       5.9578      2.00000
     15       5.9793      2.00000
     16       5.9916      2.00000
     17       6.5375      2.00000
     18       8.6673      0.06610
     19       8.8534     -0.04146
     20      10.9767      0.00000
     21      14.2140      0.00000
     22      14.3700      0.00000
     23      14.6826      0.00000
     24      16.2100      0.00000

 k-point  21 :      -0.4545    0.1818    0.0000
  band No.  band energies     occupation 
      1       1.1531      2.00000
      2       1.7869      2.00000
      3       3.6417      2.00000
      4       4.1204      2.00000
      5       4.1252      2.00000
      6       4.4166      2.00000
      7       4.5892      2.00000
      8       4.7628      2.00000
      9       4.8540      2.00000
     10       4.9836      2.00000
     11       5.0938      2.00000
     12       5.2402      2.00000
     13       5.8398      2.00000
     14       5.9413      2.00000
     15       5.9575      2.00000
     16       6.0440      2.00000
     17       6.2690      2.00000
     18       8.2748      2.07083
     19       9.1099     -0.00027
     20      11.0613      0.00000
     21      13.8210      0.00000
     22      14.3262      0.00000
     23      16.1044      0.00000
     24      16.2397      0.00000

 k-point  22 :      -0.3636    0.1818    0.0000
  band No.  band energies     occupation 
      1       0.6407      2.00000
      2       2.3152      2.00000
      3       3.6768      2.00000
      4       4.0177      2.00000
      5       4.1145      2.00000
      6       4.4431      2.00000
      7       4.5501      2.00000
      8       4.7231      2.00000
      9       4.8508      2.00000
     10       5.0498      2.00000
     11       5.0877      2.00000
     12       5.2308      2.00000
     13       5.8779      2.00000
     14       5.8967      2.00000
     15       5.9372      2.00000
     16       6.0870      2.00000
     17       6.4502      2.00000
     18       8.0693      2.00610
     19       9.6217      0.00000
     20      11.2651      0.00000
     21      13.5800      0.00000
     22      14.2286      0.00000
     23      16.2536      0.00000
     24      16.3183      0.00000

 k-point  23 :      -0.2727    0.1818    0.0000
  band No.  band energies     occupation 
      1      -0.1708      2.00000
      2       3.0390      2.00000
      3       3.8294      2.00000
      4       3.8904      2.00000
      5       4.1194      2.00000
      6       4.4588      2.00000
      7       4.4792      2.00000
      8       4.5640      2.00000
      9       4.8605      2.00000
     10       5.1427      2.00000
[...]
     23      15.8485      0.00000
     24      17.0786      0.00000

 k-point  46 :      -0.1818    0.2727    0.0909
  band No.  band energies     occupation 
      1      -0.1542      2.00000
      2       3.0687      2.00000
      3       3.7649      2.00000
      4       3.9186      2.00000
      5       4.0807      2.00000
      6       4.4340      2.00000
      7       4.4836      2.00000
      8       4.5444      2.00000
      9       4.8911      2.00000
     10       5.1282      2.00000
     11       5.1355      2.00000
     12       5.2759      2.00000
     13       5.8091      2.00000
     14       5.8583      2.00000
     15       5.9157      2.00000
     16       6.0500      2.00000
     17       7.4395      2.00000
     18       7.4620      2.00000
     19       9.4126      0.00000
     20      12.5127      0.00000
     21      13.1698      0.00000
     22      13.2858      0.00000
     23      15.6751      0.00000
     24      16.0346      0.00000

 k-point  47 :       0.4545    0.3636    0.0909
  band No.  band energies     occupation 
      1       0.3821      2.00000
      2       2.7877      2.00000
      3       3.6681      2.00000
      4       3.8617      2.00000
      5       4.3432      2.00000
      6       4.3951      2.00000
      7       4.4195      2.00000
      8       5.0063      2.00000
      9       5.0256      2.00000
     10       5.0824      2.00000
     11       5.2693      2.00000
     12       5.4255      2.00000
     13       5.6604      2.00000
     14       5.8380      2.00000
     15       5.9311      2.00000
     16       5.9950      2.00000
     17       7.1827      2.00000
     18       7.2338      2.00000
     19       7.4460      2.00000
     20      11.1562      0.00000
     21      11.3750      0.00000
     22      15.7650      0.00000
     23      17.2834      0.00000
     24      18.8939      0.00000

 k-point  48 :      -0.4545    0.3636    0.0909
  band No.  band energies     occupation 
      1       1.0789      2.00000
      2       2.6039      2.00000
      3       3.3740      2.00000
      4       3.7116      2.00000
      5       4.4009      2.00000
      6       4.4443      2.00000
      7       4.5325      2.00000
      8       4.8835      2.00000
      9       4.9625      2.00000
     10       5.0086      2.00000
     11       5.2424      2.00000
     12       5.3995      2.00000
     13       5.7282      2.00000
     14       5.8468      2.00000
     15       5.9982      2.00000
     16       6.0255      2.00000
     17       6.4056      2.00000
     18       6.9806      2.00000
     19       7.1842      2.00000
     20      11.2610      0.00000
     21      12.5111      0.00000
     22      15.3232      0.00000
     23      17.5669      0.00000
     24      18.2779      0.00000

 k-point  49 :      -0.3636    0.3636    0.0909
  band No.  band energies     occupation 
      1       1.6620      2.00000
      2       2.3838      2.00000
      3       3.0288      2.00000
      4       3.6923      2.00000
      5       4.3918      2.00000
      6       4.4302      2.00000
      7       4.6294      2.00000
      8       4.8212      2.00000
      9       4.8425      2.00000
     10       5.0371      2.00000
     11       5.1528      2.00000
     12       5.2867      2.00000
     13       5.7717      2.00000
     14       5.8339      2.00000
     15       6.0008      2.00000
     16       6.0809      2.00000
     17       6.1825      2.00000
     18       6.7221      2.00000
     19       7.4687      2.00000
     20      11.3876      0.00000
     21      14.0812      0.00000
     22      14.9614      0.00000
     23      16.3861      0.00000
     24      17.6353      0.00000

 k-point  50 :      -0.2727    0.3636    0.0909
  band No.  band energies     occupation 
      1       1.2829      2.00000
      2       2.6919      2.00000
      3       2.9557      2.00000
      4       3.8122      2.00000
      5       4.2323      2.00000
      6       4.4363      2.00000
      7       4.6615      2.00000
      8       4.7133      2.00000
      9       4.9067      2.00000
     10       4.9932      2.00000
     11       5.1516      2.00000
     12       5.1652      2.00000
     13       5.7892      2.00000
     14       5.8354      2.00000
     15       5.9544      2.00000
     16       6.1045      2.00000
     17       6.4312      2.00000
     18       6.6986      2.00000
     19       8.0177      2.00461
     20      11.6448      0.00000
     21      14.7096      0.00000
     22      14.7263      0.00000
     23      15.8623      0.00000
     24      17.2319      0.00000

 k-point  51 :      -0.4545    0.4545    0.0909
  band No.  band energies     occupation 
      1       1.4344      2.00000
      2       2.3837      2.00000
      3       3.4521      2.00000
      4       3.4726      2.00000
      5       4.4378      2.00000
      6       4.4911      2.00000
      7       4.5778      2.00000
      8       4.8637      2.00000
      9       4.9476      2.00000
     10       5.3266      2.00000
     11       5.4214      2.00000
     12       5.4494      2.00000
     13       5.8001      2.00000
     14       5.8575      2.00000
     15       6.0532      2.00000
     16       6.0729      2.00000
     17       6.4269      2.00000
     18       6.5296      2.00000
     19       6.5887      2.00000
     20      10.9859      0.00000
     21      11.2236      0.00000
     22      17.0942      0.00000
     23      18.4868      0.00000
     24      18.7969      0.00000

 k-point  52 :      -0.3636    0.4545    0.0909
  band No.  band energies     occupation 
      1       1.8363      2.00000
      2       2.3223      2.00000
      3       3.1336      2.00000
      4       3.4981      2.00000
      5       4.4312      2.00000
      6       4.5546      2.00000
      7       4.6480      2.00000
      8       4.7106      2.00000
      9       4.9759      2.00000
     10       5.1154      2.00000
     11       5.3207      2.00000
     12       5.4029      2.00000
     13       5.7986      2.00000
     14       5.8748      2.00000
     15       6.0203      2.00000
     16       6.1273      2.00000
     17       6.1541      2.00000
     18       6.3971      2.00000
     19       6.8447      2.00000
     20      11.1803      0.00000
     21      12.4101      0.00000
     22      16.6858      0.00000
     23      16.7147      0.00000
     24      18.9355      0.00000

 k-point  53 :      -0.4545    0.3636    0.1818
  band No.  band energies     occupation 
      1       0.7503      2.00000
      2       2.7788      2.00000
      3       3.3886      2.00000
      4       3.8462      2.00000
      5       4.2472      2.00000
      6       4.4998      2.00000
      7       4.5166      2.00000
      8       4.6975      2.00000
      9       4.9749      2.00000
     10       4.9950      2.00000
     11       5.1742      2.00000
     12       5.2804      2.00000
     13       5.7587      2.00000
     14       5.8766      2.00000
     15       5.9326      2.00000
     16       6.0546      2.00000
     17       6.7674      2.00000
     18       6.9283      2.00000
     19       7.7143      2.00000
     20      12.7289      0.00000
     21      12.8066      0.00000
     22      13.6026      0.00000
     23      17.3940      0.00000
     24      17.6267      0.00000

 k-point  54 :      -0.3636    0.3636    0.1818
  band No.  band energies     occupation 
      1       1.4537      2.00000
      2       2.4766      2.00000
      3       3.1497      2.00000
      4       3.7156      2.00000
      5       4.3303      2.00000
      6       4.5114      2.00000
      7       4.5819      2.00000
      8       4.6897      2.00000
      9       4.8907      2.00000
     10       4.9932      2.00000
     11       5.1466      2.00000
     12       5.2806      2.00000
     13       5.8105      2.00000
     14       5.8756      2.00000
     15       5.9451      2.00000
     16       6.0856      2.00000
     17       6.2522      2.00000
     18       6.9393      2.00000
     19       7.2409      2.00000
     20      12.8362      0.00000
     21      13.2137      0.00000
     22      14.3238      0.00000
     23      16.0601      0.00000
     24      17.8307      0.00000

 k-point  55 :      -0.3636    0.4545    0.1818
  band No.  band energies     occupation 
      1       1.6733      2.00000
      2       2.5524      2.00000
      3       3.1736      2.00000
      4       3.4488      2.00000
      5       4.4811      2.00000
      6       4.5328      2.00000
      7       4.5509      2.00000
      8       4.8356      2.00000
      9       4.8523      2.00000
     10       4.9159      2.00000
     11       5.2821      2.00000
     12       5.3799      2.00000
     13       5.8454      2.00000
     14       5.8637      2.00000
     15       6.0264      2.00000
     16       6.1588      2.00000
     17       6.2378      2.00000
     18       6.5429      2.00000
     19       6.6133      2.00000
     20      12.5042      0.00000
     21      12.6338      0.00000
     22      14.8506      0.00000
     23      16.3163      0.00000
     24      18.9998      0.00000

 k-point  56 :      -0.2727    0.4545    0.1818
  band No.  band energies     occupation 
      1       1.8604      2.00000
      2       2.7299      2.00000
      3       2.8053      2.00000
      4       3.4677      2.00000
      5       4.4900      2.00000
      6       4.5171      2.00000
      7       4.6155      2.00000
      8       4.6908      2.00000
      9       4.8321      2.00000
     10       4.9207      2.00000
     11       5.2340      2.00000
     12       5.3557      2.00000
     13       5.8481      2.00000
     14       5.9259      2.00000
     15       5.9512      2.00000
     16       6.1389      2.00000
     17       6.1907      2.00000
     18       6.4728      2.00000
     19       6.7482      2.00000
     20      12.7811      0.00000
     21      14.2139      0.00000
     22      14.4929      0.00000
     23      14.5353      0.00000
     24      19.0837      0.00000


--------------------------------------------------------------------------------------------------------


 soft charge-density along one line, spin component           1
         0         1         2         3         4         5         6         7         8         9
 total charge-density along one line
 
 pseudopotential strength for first ion, spin component:           1
 -2.504   0.000   0.000   0.000   0.000  -5.015   0.000   0.000
  0.000  -2.504   0.000   0.000   0.000   0.000  -5.015   0.000
  0.000   0.000  -2.485   0.000   0.000   0.000   0.000  -5.029
  0.000   0.000   0.000  -2.504   0.000   0.000   0.000   0.000
  0.000   0.000   0.000   0.000  -2.485   0.000   0.000   0.000
 -5.015   0.000   0.000   0.000   0.000  10.490   0.000   0.000
  0.000  -5.015   0.000   0.000   0.000   0.000  10.490   0.000
  0.000   0.000  -5.029   0.000   0.000   0.000   0.000  10.500
  0.000   0.000   0.000  -5.015   0.000   0.000   0.000   0.000
  0.000   0.000   0.000   0.000  -5.029   0.000   0.000   0.000
  0.000   0.000   0.000   0.000   0.000   0.000   0.000   0.000
  0.000   0.000   0.000   0.000   0.000   0.000   0.000   0.000
  0.000   0.000   0.000   0.000   0.000   0.000   0.000   0.000
  0.000   0.000   0.000   0.000   0.000   0.000   0.000   0.000
  0.000   0.000   0.000   0.000   0.000   0.000   0.000   0.000
  0.000   0.000   0.000   0.000   0.000   0.000   0.000   0.000
  0.000   0.000   0.000   0.000   0.000   0.000   0.000   0.000
  0.000   0.000   0.000   0.000   0.000   0.000   0.000   0.000
 total augmentation occupancy for first ion, spin component:           1
  1.909   0.000   0.000   0.000   0.000  -0.012   0.000   0.000   0.000   0.000   0.000   0.000   0.000   0.000   0.000   0.000
  0.000   1.909   0.000   0.000   0.000   0.000  -0.012   0.000   0.000   0.000   0.000   0.000   0.000   0.000   0.000   0.000
  0.000   0.000   1.926   0.000   0.000   0.000   0.000  -0.033   0.000   0.000   0.000   0.000   0.000   0.000   0.000   0.000
  0.000   0.000   0.000   1.909   0.000   0.000   0.000   0.000  -0.012   0.000   0.000   0.000   0.000   0.000   0.000   0.000
  0.000   0.000   0.000   0.000   1.926   0.000   0.000   0.000   0.000  -0.033   0.000   0.000   0.000   0.000   0.000   0.000
 -0.012   0.000   0.000   0.000   0.000   0.017   0.000   0.000   0.000   0.000   0.000   0.000   0.000   0.000   0.000   0.000
  0.000  -0.012   0.000   0.000   0.000   0.000   0.017   0.000   0.000   0.000   0.000   0.000   0.000   0.000   0.000   0.000
  0.000   0.000  -0.033   0.000   0.000   0.000   0.000   0.017   0.000   0.000   0.000   0.000   0.000   0.000   0.000   0.000
  0.000   0.000   0.000  -0.012   0.000   0.000   0.000   0.000   0.017   0.000   0.000   0.000   0.000   0.000   0.000   0.000
  0.000   0.000   0.000   0.000  -0.033   0.000   0.000   0.000   0.000   0.017   0.000   0.000   0.000   0.000   0.000   0.000
  0.000   0.000   0.000   0.000   0.000   0.000   0.000   0.000   0.000   0.000   1.754  -0.176   0.000   0.000   0.000   0.000
  0.000   0.000   0.000   0.000   0.000   0.000   0.000   0.000   0.000   0.000  -0.176   0.024   0.000   0.000   0.000   0.000
  0.000   0.000   0.000   0.000   0.000   0.000   0.000   0.000   0.000   0.000   0.000   0.000   0.257   0.000   0.000  -0.016
  0.000   0.000   0.000   0.000   0.000   0.000   0.000   0.000   0.000   0.000   0.000   0.000   0.000   0.257   0.000   0.000
  0.000   0.000   0.000   0.000   0.000   0.000   0.000   0.000   0.000   0.000   0.000   0.000   0.000   0.000   0.257   0.000
  0.000   0.000   0.000   0.000   0.000   0.000   0.000   0.000   0.000   0.000   0.000   0.000  -0.016   0.000   0.000   0.001
  0.000   0.000   0.000   0.000   0.000   0.000   0.000   0.000   0.000   0.000   0.000   0.000   0.000  -0.016   0.000   0.000
  0.000   0.000   0.000   0.000   0.000   0.000   0.000   0.000   0.000   0.000   0.000   0.000   0.000   0.000  -0.016   0.000


------------------------ aborting loop because EDIFF is reached ----------------------------------------


    CHARGE:  cpu time    0.04: real time    0.03
    FORLOC:  cpu time    0.00: real time    0.00
    FORNL :  cpu time    0.14: real time    0.14
    STRESS:  cpu time    0.30: real time    0.30
    FORCOR:  cpu time    0.01: real time    0.01
    FORHAR:  cpu time    0.00: real time    0.00
    MIXING:  cpu time    0.00: real time    0.00

  FORCE on cell =-STRESS in cart. coord.  units (eV):
  Direction    XX          YY          ZZ          XY          YZ          ZX
  --------------------------------------------------------------------------------------
  Alpha Z   144.96226   144.96226   144.96226
  Ewald   -1045.64121 -1045.64121 -1045.64121     0.00000     0.00000     0.00000
  Hartree   413.28882   413.28882   413.28882     0.00000     0.00000     0.00000
  E(xc)    -201.90656  -201.90659  -201.90656     0.00008     0.00008     0.00006
  Local     163.20850   163.20854   163.20850     0.00337     0.00337     0.00340
  n-local   -46.23410   -41.83502   -44.41153     2.23433    -1.71647    -2.96307
  augment   284.03622   284.03619   284.03622    -0.00286    -0.00286    -0.00287
  Kinetic   283.45748   288.19286   286.98023     2.19344    -1.53999    -2.53216
  Fock        0.00000     0.00000     0.00000     0.00000     0.00000     0.00000
  -------------------------------------------------------------------------------------
  Total      -0.00200    -0.00200    -0.00200     0.00000     0.00000     0.00000
  in kB      -0.06504    -0.06504    -0.06504     0.00000     0.00000     0.00000
  external pressure =       -0.07 kB  Pullay stress =        0.00 kB


 VOLUME and BASIS-vectors are now :
 -----------------------------------------------------------------------------
  energy-cutoff  :      295.45
  volume of cell :       49.25
      direct lattice vectors                 reciprocal lattice vectors
     2.909407389  2.909407389  0.000000000     0.171856304  0.171856304 -0.171856304
     0.000000000  2.909407389  2.909407389    -0.171856304  0.171856304  0.171856304
     2.909407389  0.000000000  2.909407389     0.171856304 -0.171856304  0.171856304

  length of vectors
     4.114523387  4.114523387  4.114523387     0.297663850  0.297663850  0.297663850


 FORCES acting on ions
    electron-ion (+dipol)            ewald-force                    non-local-force                 convergence-correction
 -----------------------------------------------------------------------------------------------
   0.104E-12 -.140E-11 0.133E-11   0.481E-14 0.287E-13 -.107E-14   0.207E-24 0.149E-26 0.620E-24   -.187E-13 0.500E-13 -.811E-13
   0.127E-04 0.317E-04 0.127E-04   0.211E-13 -.784E-16 0.220E-13   0.173E-16 0.870E-17 0.173E-16   -.166E-07 -.165E-07 -.166E-07
   -.127E-04 -.317E-04 -.127E-04   -.230E-13 -.319E-13 -.221E-13   -.243E-16 -.104E-16 -.278E-16   0.166E-07 0.165E-07 0.166E-07
   -.147E-13 -.168E-13 -.200E-13   -.384E-14 0.910E-15 0.780E-17   0.827E-24 0.145E-23 -.827E-24   -.804E-15 -.897E-14 0.211E-14
 -----------------------------------------------------------------------------------------------
   0.245E-11 0.251E-11 0.570E-11   -.919E-15 -.236E-14 -.110E-14   -.694E-17 -.173E-17 -.104E-16   -.202E-12 0.162E-12 -.319E-12
 
 
 POSITION                                       TOTAL-FORCE (eV/Angst)
 -----------------------------------------------------------------------------------
      2.90941      2.90941      2.90941         0.000000      0.000000      0.000000
      1.45470      1.45470      1.45470         0.000000      0.000000      0.000000
      4.36411      4.36411      4.36411         0.000000      0.000000      0.000000
      0.00000      0.00000      0.00000         0.000000      0.000000      0.000000
 -----------------------------------------------------------------------------------
    total drift:                                0.000000      0.000000      0.000000


--------------------------------------------------------------------------------------------------------



  FREE ENERGIE OF THE ION-ELECTRON SYSTEM (eV)
  ---------------------------------------------------
  free  energy   TOTEN  =       -15.578929 eV

  energy  without entropy=      -15.581916  energy(sigma->0) =      -15.579925
 
 d Force = 0.0000000E+00[ 0.000E+00, 0.000E+00]  d Energy =-0.7024282E-06 0.702E-06
 d Force = 0.0000000E+00[ 0.000E+00, 0.000E+00]  d Ewald  =-0.6292921E-01 0.629E-01


--------------------------------------------------------------------------------------------------------


    POTLOK:  cpu time    0.01: real time    0.01


--------------------------------------------------------------------------------------------------------




--------------------------------------------------------------------------------------------------------


  
 reached required accuracy - stopping structural energy minimisation
     LOOP+:  cpu time    1.77: real time    1.78
    4ORBIT:  cpu time    0.00: real time    0.00

 total amount of memory used by VASP on root node    44184. kBytes
========================================================================

   base      :      30000. kBytes
   nonl-proj :       9326. kBytes
   fftplans  :        439. kBytes
   grid      :        917. kBytes
   one-center:         62. kBytes
   wavefun   :       3440. kBytes
 
  
  
 General timing and accounting informations for this job:
 ========================================================
  
                  Total CPU time used (sec):       13.410
                            User time (sec):       13.320
                          System time (sec):        0.090
                         Elapsed time (sec):       13.529
  
                   Maximum memory used (kb):       37864.
                   Average memory used (kb):           0.
  
                          Minor page faults:         9780
                          Major page faults:            0
                 Voluntary context switches:          495
