 vasp.5.2.12 11Nov11 complex                                                    
  
 executed on             LinuxIFC date 2014.05.30  10:52:34
 running on    4 nodes
 distr:  one band on    1 nodes,    4 groups


--------------------------------------------------------------------------------------------------------


 INCAR:
 POTCAR:    PAW_PBE Cu 22Jun2005                  
 POTCAR:    PAW_PBE Al 04Jan2001                  
 POTCAR:    PAW_PBE Cu 22Jun2005                  
   VRHFIN =Cu: d10 p1                                                           
   LEXCH  = PE                                                                  
   EATOM  =  1390.9808 eV,  102.2342 Ry                                         
                                                                                
   TITEL  = PAW_PBE Cu 22Jun2005                                                
   LULTRA =        F    use ultrasoft PP ?                                      
   IUNSCR =        1    unscreen: 0-lin 1-nonlin 2-no                           
   RPACOR =    2.000    partial core radius                                     
   POMASS =   63.546; ZVAL   =   11.000    mass and valenz                      
   RCORE  =    2.300    outmost cutoff radius                                   
   RWIGS  =    2.200; RWIGS  =    1.164    wigner-seitz radius (au A)           
   ENMAX  =  295.446; ENMIN  =  221.585 eV                                      
   ICORE  =        3    local potential                                         
   LCOR   =        T    correct aug charges                                     
   LPAW   =        T    paw PP                                                  
   EAUG   =  586.980                                                            
   DEXC   =    0.000                                                            
   RMAX   =    2.344    core radius for proj-oper                               
   RAUG   =    1.300    factor for augmentation sphere                          
   RDEP   =    2.302    radius for radial grids                                 
   RDEPT  =    1.771    core radius for aug-charge                              
                                                                                
   Atomic configuration                                                         
    9 entries                                                                   
     n  l   j            E        occ.                                          
     1  0  0.50     -8850.2468   2.0000                                         
     2  0  0.50     -1062.3498   2.0000                                         
     2  1  1.50      -916.8226   6.0000                                         
     3  0  0.50      -114.6929   2.0000                                         
     3  1  1.50       -72.1325   6.0000                                         
     3  2  2.50        -5.0394  10.0000                                         
     4  0  0.50        -4.6097   1.0000                                         
     4  1  0.50        -4.0817   0.0000                                         
     4  3  2.50        -1.3606   0.0000                                         
   Description                                                                  
     l       E           TYP  RCUT    TYP  RCUT                                 
     2     -5.0393973     23  2.200                                             
     2     10.8846608     23  2.200                                             
     0     -4.6097109     23  2.200                                             
     0      8.2520465     23  2.200                                             
     1     -2.7211652     23  2.200                                             
     1     21.7055443     23  2.200                                             
     3      2.7211652     23  2.300                                             
  local pseudopotential read in
  partial core-charges read in
  partial kinetic energy density read in
  atomic valenz-charges read in
  non local Contribution for L=           2  read in
    real space projection operators read in
  non local Contribution for L=           2  read in
    real space projection operators read in
  non local Contribution for L=           0  read in
    real space projection operators read in
  non local Contribution for L=           0  read in
    real space projection operators read in
  non local Contribution for L=           1  read in
    real space projection operators read in
  non local Contribution for L=           1  read in
    real space projection operators read in
    PAW grid and wavefunctions read in
 
   number of l-projection  operators is LMAX  =           6
   number of lm-projection operators is LMMAX =          18
 
 POTCAR:    PAW_PBE Al 04Jan2001                  
   VRHFIN =Al: s2p1                                                             
   LEXCH  = PE                                                                  
   EATOM  =    53.5387 eV,    3.9350 Ry                                         
                                                                                
   TITEL  = PAW_PBE Al 04Jan2001                                                
   LULTRA =        F    use ultrasoft PP ?                                      
   IUNSCR =        1    unscreen: 0-lin 1-nonlin 2-no                           
   RPACOR =    1.500    partial core radius                                     
   POMASS =   26.981; ZVAL   =    3.000    mass and valenz                      
   RCORE  =    1.900    outmost cutoff radius                                   
   RWIGS  =    2.650; RWIGS  =    1.402    wigner-seitz radius (au A)           
   ENMAX  =  240.300; ENMIN  =  180.225 eV                                      
   ICORE  =        2    local potential                                         
   LCOR   =        T    correct aug charges                                     
   LPAW   =        T    paw PP                                                  
   EAUG   =  291.052                                                            
   DEXC   =    0.000                                                            
   RMAX   =    1.939    core radius for proj-oper                               
   RAUG   =    1.300    factor for augmentation sphere                          
   RDEP   =    1.966    radius for radial grids                                 
   RDEPT  =    1.856    core radius for aug-charge                              
                                                                                
   Atomic configuration                                                         
    6 entries                                                                   
     n  l   j            E        occ.                                          
     1  0  0.50     -1511.1048   2.0000                                         
     2  0  0.50      -108.1629   2.0000                                         
     2  1  1.50       -69.6402   6.0000                                         
     3  0  0.50        -7.7528   2.0000                                         
     3  1  1.50        -2.7121   1.0000                                         
     3  2  2.50        -2.7212   0.0000                                         
   Description                                                                  
     l       E           TYP  RCUT    TYP  RCUT                                 
     0     -7.7528455     23  1.900                                             
     0     -3.3096929     23  1.900                                             
     1     -2.7120682     23  1.900                                             
     1     13.6058260     23  1.900                                             
     2     -2.7211652      7  1.900                                             
  local pseudopotential read in
  partial core-charges read in
  partial kinetic energy density read in
  atomic valenz-charges read in
  non local Contribution for L=           0  read in
    real space projection operators read in
  non local Contribution for L=           0  read in
    real space projection operators read in
  non local Contribution for L=           1  read in
    real space projection operators read in
  non local Contribution for L=           1  read in
    real space projection operators read in
    PAW grid and wavefunctions read in
 
   number of l-projection  operators is LMAX  =           4
   number of lm-projection operators is LMMAX =           8
 
 Optimization of the real space projectors (new method)

 maximal supplied QI-value         = 16.25
 optimisation between [QCUT,QGAM] = [  8.78, 17.55] = [ 21.57, 86.27] Ry 
 Optimized for a Real-space Cutoff    1.61 Angstroem

   l    n(q)    QCUT    max X(q) W(low)/X(q) W(high)/X(q)  e(spline) 
   2      7     8.776     4.610    0.19E-03    0.29E-03    0.29E-06
   2      7     8.776     8.522    0.28E-03    0.56E-03    0.43E-06
   0      8     8.776    51.609    0.51E-04    0.19E-03    0.66E-07
   0      8     8.776    27.747    0.45E-04    0.18E-03    0.64E-07
   1      8     8.776    20.408    0.41E-03    0.31E-03    0.23E-06
   1      8     8.776    13.425    0.36E-03    0.28E-03    0.21E-06
 Optimization of the real space projectors (new method)

 maximal supplied QI-value         = 19.84
 optimisation between [QCUT,QGAM] = [  8.73, 17.46] = [ 21.34, 85.38] Ry 
 Optimized for a Real-space Cutoff    1.43 Angstroem

   l    n(q)    QCUT    max X(q) W(low)/X(q) W(high)/X(q)  e(spline) 
   0      7     8.731   176.870    0.24E-03    0.42E-04    0.12E-06
   0      7     8.731   105.762    0.23E-03    0.40E-04    0.11E-06
   1      7     8.731    55.370    0.23E-03    0.67E-03    0.12E-06
   1      7     8.731    20.208    0.21E-03    0.61E-03    0.12E-06
  PAW_PBE Cu 22Jun2005                  :
 energy of atom  1       EATOM=-1390.9808
 kinetic energy error for atom=    0.0452 (will be added to EATOM!!)
  PAW_PBE Al 04Jan2001                  :
 energy of atom  2       EATOM=  -53.5387
 kinetic energy error for atom=    0.0012 (will be added to EATOM!!)
 
 
 POSCAR: XYZ.pcell: Cu15Al7                      
  positions in direct lattice
  velocities in cartesian coordinates
 exchange correlation table for  LEXCH =        8
   RHO(1)=    0.500       N(1)  =     2000
   RHO(2)=  100.500       N(2)  =     4000
 


--------------------------------------------------------------------------------------------------------


 ion  position               nearest neighbor table
   1  0.760  0.240  0.240-  16 2.39  17 2.58  18 2.58   2 2.63  12 2.68  15 2.68  14 2.68  13 2.68
                            19 2.74  21 2.74  22 2.74  20 2.74
   2  0.491  0.509  0.509-  10 2.46  11 2.46   3 2.47  12 2.52  15 2.52  14 2.52  13 2.52   1 2.63
                            22 2.64  19 2.64  20 2.64  21 2.64
   3  0.238  0.762  0.762-  16 2.29   2 2.47  22 2.55  19 2.55  20 2.55  21 2.55   9 2.71   8 2.71

   4  0.250  0.250  0.250-   7 2.41  17 2.44  18 2.44   6 2.48  20 2.53  19 2.53   8 2.61   9 2.61
                            13 2.64  12 2.64
   5  0.750  0.750  0.750-   6 2.41  17 2.44  18 2.44   7 2.48  21 2.53  22 2.53   8 2.61   9 2.61
                            14 2.64  15 2.64
   6  0.996  0.504  0.504-  10 2.40  11 2.40   5 2.41   4 2.48  13 2.52  12 2.52   8 2.68   9 2.68
                            21 2.69  22 2.69  17 2.88  18 2.88
   7  0.496  0.004  0.004-  10 2.40  11 2.40   4 2.41   5 2.48  14 2.52  15 2.52   8 2.68   9 2.68
                            20 2.69  19 2.69  17 2.88  18 2.88
   8  0.304  0.044  0.696-   4 2.61   5 2.61  14 2.62  12 2.62   6 2.68   7 2.68   3 2.71  16 2.78
                            18 2.86  17 3.01
   9  0.956  0.696  0.044-   4 2.61   5 2.61  13 2.62  15 2.62   6 2.68   7 2.68   3 2.71  16 2.78
                            17 2.86  18 3.01
  10  0.623  0.718  0.377-   6 2.40   7 2.40  21 2.42  19 2.42   2 2.46  18 2.56  14 2.61  12 2.61

  11  0.282  0.377  0.718-   6 2.40   7 2.40  20 2.42  22 2.42   2 2.46  17 2.56  13 2.61  15 2.61

  12  0.921  0.265  0.515-  19 2.44  21 2.50   2 2.52   6 2.52  10 2.61   8 2.62   4 2.64  15 2.66
                             1 2.68  16 2.88  17 2.99
  13  0.299  0.515  0.265-  20 2.44  22 2.50   2 2.52   6 2.52  11 2.61   9 2.62   4 2.64  14 2.66
                             1 2.68  16 2.88  18 2.99
  14  0.485  0.701  0.079-  21 2.44  19 2.50   2 2.52   7 2.52  10 2.61   8 2.62   5 2.64  13 2.66
                             1 2.68  16 2.88  17 2.99
  15  0.735  0.079  0.701-  22 2.44  20 2.50   2 2.52   7 2.52  11 2.61   9 2.62   5 2.64  12 2.66
                             1 2.68  16 2.88  18 2.99
  16  0.004  0.996  0.996-   3 2.29   1 2.39   8 2.78   9 2.78  15 2.88  13 2.88  12 2.88  14 2.88
                            19 2.97  21 2.97  22 2.97  20 2.97  17 3.07  18 3.07
  17  0.997  0.353  0.003-   4 2.44   5 2.44  11 2.56   1 2.58  21 2.58  19 2.58   9 2.86   6 2.88
                             7 2.88  12 2.99  14 2.99   8 3.01  16 3.07
  18  0.647  0.003  0.353-   4 2.44   5 2.44  10 2.56   1 2.58  20 2.58  22 2.58   8 2.86   6 2.88
                             7 2.88  13 2.99  15 2.99   9 3.01  16 3.07
  19  0.215  0.963  0.328-  10 2.42  12 2.44  14 2.50   4 2.53  22 2.54   3 2.55  17 2.58   2 2.64
                             7 2.69   1 2.74  16 2.97
  20  0.494  0.328  0.963-  11 2.42  13 2.44  15 2.50   4 2.53  21 2.54   3 2.55  18 2.58   2 2.64
                             7 2.69   1 2.74  16 2.97
  21  0.672  0.506  0.785-  10 2.42  14 2.44  12 2.50   5 2.53  20 2.54   3 2.55  17 2.58   2 2.64
                             6 2.69   1 2.74  16 2.97
  22  0.037  0.785  0.506-  11 2.42  15 2.44  13 2.50   5 2.53  19 2.54   3 2.55  18 2.58   2 2.64
                             6 2.69   1 2.74  16 2.97
 
  LATTYP: Found a face centered orthorhombic cell.
 ALAT       =     8.2709609902
 B/A-ratio  =     1.1826037448
 C/A-ratio  =     1.7302552075
  
  Lattice vectors:
  
 A1 = (   0.0000000000,  -7.1554366620,  -4.8906347201)
 A2 = (  -4.1354804951,  -7.1554366620,   0.0000000000)
 A3 = (  -4.1354804951,   0.0000000000,  -4.8906347201)
 Subroutine PRICEL returns:
 Original cell was already a primitive cell.
 

Analysis of symmetry for initial positions (statically):

 Routine SETGRP: Setting up the symmetry group for a 
 face centered orthorhombic supercell.


 Subroutine GETGRP returns: Found  4 space group operations
 (whereof  4 operations were pure point group operations)
 out of a pool of  8 trial point group operations.


The static configuration has the point symmetry C_2v.

Analysis of symmetry for dynamics (positions and initial velocities):

 Subroutine DYNSYM returns: Found  4 space group operations
 (whereof  4 operations were pure point group operations)
 out of a pool of  4 trial space group operations
 (whereof  4 operations were pure point group operations)
 and found also     1 'primitive' translations


The dynamic configuration has the point symmetry C_2v.
 
 
 KPOINTS: Automatic mesh                          

Automatic generation of k-mesh.
 
 Subroutine IBZKPT returns following result:
 ===========================================
 
 Found     64 irreducible k-points:
 
 Following reciprocal coordinates:
            Coordinates               Weight
  0.000000  0.000000  0.000000      1.000000
  0.142857  0.000000  0.000000      8.000000
  0.285714  0.000000  0.000000      8.000000
  0.428571  0.000000  0.000000      8.000000
  0.142857  0.142857  0.000000      2.000000
  0.285714  0.142857  0.000000      8.000000
  0.428571  0.142857  0.000000      8.000000
 -0.428571  0.142857  0.000000      8.000000
 -0.285714  0.142857  0.000000      8.000000
 -0.142857  0.142857  0.000000      4.000000
  0.285714  0.285714  0.000000      2.000000
  0.428571  0.285714  0.000000      8.000000
 -0.428571  0.285714  0.000000      8.000000
 -0.285714  0.285714  0.000000      4.000000
  0.428571  0.428571  0.000000      2.000000
 -0.428571  0.428571  0.000000      4.000000
  0.142857  0.000000  0.142857      2.000000
  0.285714  0.000000  0.142857      8.000000
  0.428571  0.000000  0.142857      8.000000
 -0.428571  0.000000  0.142857      8.000000
 -0.285714  0.000000  0.142857      8.000000
 -0.142857  0.000000  0.142857      4.000000
  0.000000  0.142857  0.142857      2.000000
  0.285714  0.142857  0.142857      4.000000
  0.428571  0.142857  0.142857      8.000000
 -0.428571  0.142857  0.142857      8.000000
 -0.285714  0.142857  0.142857      8.000000
 -0.142857  0.142857  0.142857      8.000000
  0.428571  0.285714  0.142857      4.000000
 -0.428571  0.285714  0.142857      8.000000
 -0.285714  0.285714  0.142857      8.000000
 -0.142857  0.285714  0.142857      4.000000
  0.285714  0.428571  0.142857      4.000000
 -0.428571  0.428571  0.142857      4.000000
 -0.285714  0.428571  0.142857      4.000000
  0.285714 -0.428571  0.142857      8.000000
  0.428571 -0.428571  0.142857      4.000000
  0.285714 -0.285714  0.142857      8.000000
  0.428571 -0.285714  0.142857      4.000000
  0.285714 -0.142857  0.142857      4.000000
  0.285714  0.000000  0.285714      2.000000
  0.428571  0.000000  0.285714      8.000000
 -0.428571  0.000000  0.285714      8.000000
 -0.285714  0.000000  0.285714      4.000000
  0.428571  0.142857  0.285714      4.000000
 -0.428571  0.142857  0.285714      8.000000
 -0.285714  0.142857  0.285714      8.000000
 -0.142857  0.142857  0.285714      4.000000
  0.000000  0.285714  0.285714      2.000000
 -0.428571  0.285714  0.285714      4.000000
 -0.285714  0.285714  0.285714      8.000000
 -0.142857  0.285714  0.285714      8.000000
 -0.285714  0.428571  0.285714      4.000000
 -0.142857  0.428571  0.285714      4.000000
  0.428571 -0.285714  0.285714      4.000000
  0.428571 -0.142857  0.285714      4.000000
  0.428571  0.000000  0.428571      2.000000
 -0.428571  0.000000  0.428571      4.000000
 -0.428571  0.142857  0.428571      4.000000
 -0.285714  0.142857  0.428571      4.000000
 -0.285714  0.285714  0.428571      4.000000
 -0.142857  0.285714  0.428571      4.000000
  0.000000  0.428571  0.428571      2.000000
 -0.142857  0.428571  0.428571      4.000000
 
 Following cartesian coordinates:
            Coordinates               Weight
  0.000000  0.000000  0.000000      1.000000
  0.017272  0.009982 -0.014605      8.000000
  0.034544  0.019965 -0.029210      8.000000
  0.051816  0.029947 -0.043816      8.000000
  0.000000  0.019965  0.000000      2.000000
  0.017272  0.029947 -0.014605      8.000000
  0.034544  0.039930 -0.029210      8.000000
 -0.069089 -0.019965  0.058421      8.000000
 -0.051816 -0.009982  0.043816      8.000000
 -0.034544  0.000000  0.029210      4.000000
  0.000000  0.039930  0.000000      2.000000
  0.017272  0.049912 -0.014605      8.000000
 -0.086361 -0.009982  0.073026      8.000000
 -0.069089  0.000000  0.058421      4.000000
  0.000000  0.059895  0.000000      2.000000
 -0.103633  0.000000  0.087631      4.000000
  0.034544  0.000000  0.000000      2.000000
  0.051816  0.009982 -0.014605      8.000000
  0.069089  0.019965 -0.029210      8.000000
 -0.034544 -0.039930  0.058421      8.000000
 -0.017272 -0.029947  0.043816      8.000000
  0.000000 -0.019965  0.029210      4.000000
  0.000000  0.000000  0.029210      2.000000
  0.034544  0.019965  0.000000      4.000000
  0.051816  0.029947 -0.014605      8.000000
 -0.051816 -0.029947  0.073026      8.000000
 -0.034544 -0.019965  0.058421      8.000000
 -0.017272 -0.009982  0.043816      8.000000
  0.034544  0.039930  0.000000      4.000000
 -0.069089 -0.019965  0.087631      8.000000
 -0.051816 -0.009982  0.073026      8.000000
 -0.034544  0.000000  0.058421      4.000000
  0.000000  0.039930  0.029210      4.000000
 -0.086361 -0.009982  0.102236      4.000000
 -0.069089  0.000000  0.087631      4.000000
  0.103633 -0.019965 -0.058421      8.000000
  0.120905 -0.009982 -0.073026      4.000000
  0.086361 -0.009982 -0.043816      8.000000
  0.103633  0.000000 -0.058421      4.000000
  0.069089  0.000000 -0.029210      4.000000
  0.069089  0.000000  0.000000      2.000000
  0.086361  0.009982 -0.014605      8.000000
 -0.017272 -0.049912  0.073026      8.000000
  0.000000 -0.039930  0.058421      4.000000
  0.069089  0.019965  0.000000      4.000000
 -0.034544 -0.039930  0.087631      8.000000
 -0.017272 -0.029947  0.073026      8.000000
  0.000000 -0.019965  0.058421      4.000000
  0.000000  0.000000  0.058421      2.000000
 -0.051816 -0.029947  0.102236      4.000000
 -0.034544 -0.019965  0.087631      8.000000
 -0.017272 -0.009982  0.073026      8.000000
 -0.051816 -0.009982  0.102236      4.000000
 -0.034544  0.000000  0.087631      4.000000
  0.120905 -0.009982 -0.043816      4.000000
  0.103633  0.000000 -0.029210      4.000000
  0.103633  0.000000  0.000000      2.000000
  0.000000 -0.059895  0.087631      4.000000
 -0.017272 -0.049912  0.102236      4.000000
  0.000000 -0.039930  0.087631      4.000000
 -0.017272 -0.029947  0.102236      4.000000
  0.000000 -0.019965  0.087631      4.000000
  0.000000  0.000000  0.087631      2.000000
 -0.017272 -0.009982  0.102236      4.000000
 


--------------------------------------------------------------------------------------------------------




 Dimension of arrays:
   k-points           NKPTS =     64   k-points in BZ     NKDIM =     64   number of bands    NBANDS=    112
   number of dos      NEDOS =    301   number of ions     NIONS =     22
   non local maximal  LDIM  =      6   non local SUM 2l+1 LMDIM =     18
   total plane-waves  NPLWV =  36288
   max r-space proj   IRMAX =   2226   max aug-charges    IRDMAX=   5078
   dimension x,y,z NGX =    36 NGY =   36 NGZ =   28
   dimension x,y,z NGXF=    72 NGYF=   72 NGZF=   56
   support grid    NGXF=    72 NGYF=   72 NGZF=   56
   ions per type =              15   7
 NGX,Y,Z   is equivalent  to a cutoff of   7.24,  6.91,  7.27 a.u.
 NGXF,Y,Z  is equivalent  to a cutoff of  14.48, 13.81, 14.54 a.u.


 I would recommend the setting:
   dimension x,y,z NGX =    35 NGY =   36 NGZ =   27
 SYSTEM =  Al7Cu15                                 
 POSCAR =  XYZ.pcell: Cu15Al7                      

 Startparameter for this run:
   NWRITE =      2    write-flag & timer
   PREC   = normal    normal or accurate (medium, high low for compatibility)
   ISTART =      0    job   : 0-new  1-cont  2-samecut
   ICHARG =      2    charge: 1-file 2-atom 10-const
   ISPIN  =      1    spin polarized calculation?
   LNONCOLLINEAR =      F non collinear calculations
   LSORBIT =      F    spin-orbit coupling
   INIWAV =      1    electr: 0-lowe 1-rand  2-diag
   LASPH  =      F    aspherical Exc in radial PAW
   METAGGA=      F    non-selfconsistent MetaGGA calc.

 Electronic Relaxation 1
   ENCUT  =  295.4 eV  21.71 Ry    4.66 a.u.  11.58 12.15  8.98*2*pi/ulx,y,z
   ENINI  =  295.4     initial cutoff
   ENAUG  =  587.0 eV  augmentation charge cutoff
   NELM   =     40;   NELMIN=  2; NELMDL=  0     # of ELM steps 
   EDIFF  = 0.1E-05   stopping-criterion for ELM
   LREAL  =      T    real-space projection
   NLSPLINE    = F    spline interpolate recip. space projectors
   LCOMPAT=      F    compatible to vasp.4.4
   GGA_COMPAT  = T    GGA compatible to vasp.4.4-vasp.4.6
   LMAXPAW     = -100 max onsite density
   LMAXMIX     =    2 max onsite mixed and CHGCAR
   VOSKOWN=      0    Vosko Wilk Nusair interpolation
   ROPT   =   -0.00050  -0.00050
 Ionic relaxation
   EDIFFG = 0.1E-04   stopping-criterion for IOM
   NSW    =     10    number of steps for IOM
   NBLOCK =      1;   KBLOCK =     10    inner block; outer block 
   IBRION =      2    ionic relax: 0-MD 1-quasi-New 2-CG
   NFREE  =      1    steps in history (QN), initial steepest desc. (CG)
   ISIF   =      3    stress and relaxation
   IWAVPR =     11    prediction:  0-non 1-charg 2-wave 3-comb
   ISYM   =      2    0-nonsym 1-usesym 2-fastsym
   LCORR  =      T    Harris-Foulkes like correction to forces

   POTIM  = 0.2500    time-step for ionic-motion
   TEIN   =    0.0    initial temperature
   TEBEG  =    0.0;   TEEND  =   0.0 temperature during run
   SMASS  =  -3.00    Nose mass-parameter (am)
   estimated Nose-frequenzy (Omega)   =  0.10E-29 period in steps =****** mass=  -0.156E-26a.u.
   SCALEE = 1.0000    scale energy and forces
   NPACO  =    256;   APACO  = 16.0  distance and # of slots for P.C.
   PSTRESS=    0.0 pullay stress

  Mass of Ions in am
   POMASS =  63.55 26.98
  Ionic Valenz
   ZVAL   =  11.00  3.00
  Atomic Wigner-Seitz radii
   RWIGS  =  -1.00 -1.00
  virtual crystal weights 
   VCA    =   1.00  1.00
   NELECT =     186.0000    total number of electrons
   NUPDOWN=      -1.0000    fix difference up-down

 DOS related values:
   EMIN   =  10.00;   EMAX   =-10.00  energy-range for DOS
   EFERMI =   0.00
   ISMEAR =     1;   SIGMA  =   0.20  broadening in eV -4-tet -1-fermi 0-gaus

 Electronic relaxation 2 (details)
   IALGO  =     68    algorithm
   LDIAG  =      T    sub-space diagonalisation (order eigenvalues)
   LSUBROT=      T    optimize rotation matrix (better conditioning)
   TURBO    =      0    0=normal 1=particle mesh
   IRESTART =      0    0=no restart 2=restart with 2 vectors
   NREBOOT  =      0    no. of reboots
   NMIN     =      0    reboot dimension
   EREF     =   0.00    reference energy to select bands
   IMIX   =      4    mixing-type and parameters
     AMIX     =   0.40;   BMIX     =  1.00
     AMIX_MAG =   1.60;   BMIX_MAG =  1.00
     AMIN     =   0.10
     WC   =   100.;   INIMIX=   1;  MIXPRE=   1

 Intra band minimization:
   WEIMIN = 0.0010     energy-eigenvalue tresh-hold
   EBREAK =  0.22E-08  absolut break condition
   DEPER  =   0.30     relativ break condition  

   TIME   =   0.40     timestep for ELM

  volume/ion in A,a.u.               =      13.16        88.78
  Fermi-wavevector in a.u.,A,eV,Ry     =   1.412733  2.669678 27.154698  1.995814
  Thomas-Fermi vector in A             =   2.534451
 
 Write flags
   LWAVE  =      F    write WAVECAR
   LCHARG =      F    write CHGCAR
   LVTOT  =      F    write LOCPOT, total local potential
   LVHAR  =      F    write LOCPOT, Hartree potential only
   LELF   =      F    write electronic localiz. function (ELF)
   LORBIT =      0    0 simple, 1 ext, 2 COOP (PROOUT)


 Dipole corrections
   LMONO  =      F    monopole corrections only (constant potential shift)
   LDIPOL =      F    correct potential (dipole corrections)
   IDIPOL =      0    1-x, 2-y, 3-z, 4-all directions 
   EPSILON=  1.0000000 bulk dielectric constant

 Exchange correlation treatment:
   GGA     =    --    GGA type
   LEXCH   =     8    internal setting for exchange type
   VOSKOWN=      0    Vosko Wilk Nusair interpolation
   LHFCALC =     F    Hartree Fock is set to
   LHFONE  =     F    Hartree Fock one center treatment
   AEXX    =    0.0000 exact exchange contribution

 Linear response parameters
   LEPSILON=     F    determine dielectric tensor
   LRPA    =     F    only Hartree local field effects (RPA)
   LNABLA  =     F    use nabla operator in PAW spheres
   LVEL    =     F    velocity operator in full k-point grid
   LINTERFAST=   F  fast interpolation
   KINTER  =     0    interpolate to denser k-point grid
   CSHIFT  =0.1000    complex shift for real part using Kramers Kronig
   OMEGAMAX=  -1.0    maximum frequency
   RTIME   =    0.100 relaxation time in fs

 Orbital magnetization related:
   ORBITALMAG=     F  switch on orbital magnetization
   LCHIMAG   =     F  perturbation theory with respect to B field
   DQ        =  0.001000  dq finite difference perturbation B field



--------------------------------------------------------------------------------------------------------


 conjugate gradient relaxation of ions
 charge density and potential will be updated during run
 non-spin polarized calculation
 RMM-DIIS sequential band-by-band and
  variant of blocked Davidson during initial phase
 perform sub-space diagonalisation
    before iterative eigenvector-optimisation
 modified Broyden-mixing scheme, WC =      100.0
 initial mixing is a Kerker type mixing with AMIX =  0.4000 and BMIX =      1.0000
 Hartree-type preconditioning will be used
 using additional bands           19
 real space projection scheme for non local part
 use partial core corrections
 calculate Harris-corrections to forces 
   (improved forces if not selfconsistent)
 use gradient corrections 
 use of overlap-Matrix (Vanderbilt PP)
 Methfessel and Paxton  Order N= 1 SIGMA  =   0.20


--------------------------------------------------------------------------------------------------------


  energy-cutoff  :      295.45
  volume of cell :      289.44
      direct lattice vectors                 reciprocal lattice vectors
     4.135480495  7.155436662  0.000000000     0.120904935  0.069876937 -0.102236219
     0.000000000  7.155436662  4.890634720    -0.120904935  0.069876937  0.102236219
     4.135480495  0.000000000  4.890634720     0.120904935 -0.069876937  0.102236219

  length of vectors
     8.264531006  8.667097657  6.404725356     0.173069449  0.173069449  0.173069449


 
 k-points in units of 2pi/SCALE and weight: Automatic mesh                          
   0.00000000  0.00000000  0.00000000       0.003
   0.01727213  0.00998242 -0.01460517       0.023
   0.03454427  0.01996484 -0.02921035       0.023
   0.05181640  0.02994726 -0.04381552       0.023
   0.00000000  0.01996484  0.00000000       0.006
   0.01727213  0.02994726 -0.01460517       0.023
   0.03454427  0.03992968 -0.02921035       0.023
  -0.06908853 -0.01996484  0.05842070       0.023
  -0.05181640 -0.00998242  0.04381552       0.023
  -0.03454427  0.00000000  0.02921035       0.012
   0.00000000  0.03992968  0.00000000       0.006
   0.01727213  0.04991210 -0.01460517       0.023
  -0.08636067 -0.00998242  0.07302587       0.023
  -0.06908853  0.00000000  0.05842070       0.012
   0.00000000  0.05989452  0.00000000       0.006
  -0.10363280  0.00000000  0.08763104       0.012
   0.03454427  0.00000000  0.00000000       0.006
   0.05181640  0.00998242 -0.01460517       0.023
   0.06908853  0.01996484 -0.02921035       0.023
  -0.03454427 -0.03992968  0.05842070       0.023
  -0.01727213 -0.02994726  0.04381552       0.023
   0.00000000 -0.01996484  0.02921035       0.012
   0.00000000  0.00000000  0.02921035       0.006
   0.03454427  0.01996484  0.00000000       0.012
   0.05181640  0.02994726 -0.01460517       0.023
  -0.05181640 -0.02994726  0.07302587       0.023
  -0.03454427 -0.01996484  0.05842070       0.023
  -0.01727213 -0.00998242  0.04381552       0.023
   0.03454427  0.03992968  0.00000000       0.012
  -0.06908853 -0.01996484  0.08763104       0.023
  -0.05181640 -0.00998242  0.07302587       0.023
  -0.03454427  0.00000000  0.05842070       0.012
   0.00000000  0.03992968  0.02921035       0.012
  -0.08636067 -0.00998242  0.10223622       0.012
  -0.06908853  0.00000000  0.08763104       0.012
   0.10363280 -0.01996484 -0.05842070       0.023
   0.12090493 -0.00998242 -0.07302587       0.012
   0.08636067 -0.00998242 -0.04381552       0.023
   0.10363280  0.00000000 -0.05842070       0.012
   0.06908853  0.00000000 -0.02921035       0.012
   0.06908853  0.00000000  0.00000000       0.006
   0.08636067  0.00998242 -0.01460517       0.023
  -0.01727213 -0.04991210  0.07302587       0.023
   0.00000000 -0.03992968  0.05842070       0.012
   0.06908853  0.01996484  0.00000000       0.012
  -0.03454427 -0.03992968  0.08763104       0.023
  -0.01727213 -0.02994726  0.07302587       0.023
   0.00000000 -0.01996484  0.05842070       0.012
   0.00000000  0.00000000  0.05842070       0.006
  -0.05181640 -0.02994726  0.10223622       0.012
  -0.03454427 -0.01996484  0.08763104       0.023
  -0.01727213 -0.00998242  0.07302587       0.023
  -0.05181640 -0.00998242  0.10223622       0.012
  -0.03454427  0.00000000  0.08763104       0.012
   0.12090493 -0.00998242 -0.04381552       0.012
   0.10363280  0.00000000 -0.02921035       0.012
   0.10363280  0.00000000  0.00000000       0.006
   0.00000000 -0.05989452  0.08763104       0.012
  -0.01727213 -0.04991210  0.10223622       0.012
   0.00000000 -0.03992968  0.08763104       0.012
  -0.01727213 -0.02994726  0.10223622       0.012
   0.00000000 -0.01996484  0.08763104       0.012
   0.00000000  0.00000000  0.08763104       0.006
  -0.01727213 -0.00998242  0.10223622       0.012
 
 k-points in reciprocal lattice and weights: Automatic mesh                          
   0.00000000  0.00000000  0.00000000       0.003
   0.14285714  0.00000000  0.00000000       0.023
   0.28571429  0.00000000  0.00000000       0.023
   0.42857143  0.00000000  0.00000000       0.023
   0.14285714  0.14285714  0.00000000       0.006
   0.28571429  0.14285714  0.00000000       0.023
   0.42857143  0.14285714  0.00000000       0.023
  -0.42857143  0.14285714  0.00000000       0.023
  -0.28571429  0.14285714  0.00000000       0.023
  -0.14285714  0.14285714  0.00000000       0.012
   0.28571429  0.28571429  0.00000000       0.006
   0.42857143  0.28571429  0.00000000       0.023
  -0.42857143  0.28571429  0.00000000       0.023
  -0.28571429  0.28571429  0.00000000       0.012
   0.42857143  0.42857143  0.00000000       0.006
  -0.42857143  0.42857143  0.00000000       0.012
   0.14285714  0.00000000  0.14285714       0.006
   0.28571429  0.00000000  0.14285714       0.023
   0.42857143  0.00000000  0.14285714       0.023
  -0.42857143  0.00000000  0.14285714       0.023
  -0.28571429  0.00000000  0.14285714       0.023
  -0.14285714  0.00000000  0.14285714       0.012
   0.00000000  0.14285714  0.14285714       0.006
   0.28571429  0.14285714  0.14285714       0.012
   0.42857143  0.14285714  0.14285714       0.023
  -0.42857143  0.14285714  0.14285714       0.023
  -0.28571429  0.14285714  0.14285714       0.023
  -0.14285714  0.14285714  0.14285714       0.023
   0.42857143  0.28571429  0.14285714       0.012
  -0.42857143  0.28571429  0.14285714       0.023
  -0.28571429  0.28571429  0.14285714       0.023
  -0.14285714  0.28571429  0.14285714       0.012
   0.28571429  0.42857143  0.14285714       0.012
  -0.42857143  0.42857143  0.14285714       0.012
  -0.28571429  0.42857143  0.14285714       0.012
   0.28571429 -0.42857143  0.14285714       0.023
   0.42857143 -0.42857143  0.14285714       0.012
   0.28571429 -0.28571429  0.14285714       0.023
   0.42857143 -0.28571429  0.14285714       0.012
   0.28571429 -0.14285714  0.14285714       0.012
   0.28571429  0.00000000  0.28571429       0.006
   0.42857143  0.00000000  0.28571429       0.023
  -0.42857143  0.00000000  0.28571429       0.023
  -0.28571429  0.00000000  0.28571429       0.012
   0.42857143  0.14285714  0.28571429       0.012
  -0.42857143  0.14285714  0.28571429       0.023
  -0.28571429  0.14285714  0.28571429       0.023
  -0.14285714  0.14285714  0.28571429       0.012
   0.00000000  0.28571429  0.28571429       0.006
  -0.42857143  0.28571429  0.28571429       0.012
  -0.28571429  0.28571429  0.28571429       0.023
  -0.14285714  0.28571429  0.28571429       0.023
  -0.28571429  0.42857143  0.28571429       0.012
  -0.14285714  0.42857143  0.28571429       0.012
   0.42857143 -0.28571429  0.28571429       0.012
   0.42857143 -0.14285714  0.28571429       0.012
   0.42857143  0.00000000  0.42857143       0.006
  -0.42857143  0.00000000  0.42857143       0.012
  -0.42857143  0.14285714  0.42857143       0.012
  -0.28571429  0.14285714  0.42857143       0.012
  -0.28571429  0.28571429  0.42857143       0.012
  -0.14285714  0.28571429  0.42857143       0.012
   0.00000000  0.42857143  0.42857143       0.006
  -0.14285714  0.42857143  0.42857143       0.012
 
 position of ions in fractional coordinates (direct lattice) 
   0.76016650  0.23983350  0.23983350
   0.49109060  0.50890940  0.50890940
   0.23834816  0.76165184  0.76165184
   0.24960898  0.25039102  0.25039102
   0.74960898  0.75039102  0.75039102
   0.99560449  0.50439551  0.50439551
   0.49560449  0.00439551  0.00439551
   0.30440809  0.04381702  0.69559191
   0.95618298  0.69559191  0.04381702
   0.62250379  0.71755398  0.37749621
   0.28244602  0.37749621  0.71755398
   0.92052325  0.26548993  0.51476902
   0.29921780  0.51476902  0.26548993
   0.48523098  0.70078220  0.07947675
   0.73451007  0.07947675  0.70078220
   0.00447343  0.99552657  0.99552657
   0.99733703  0.35255917  0.00266297
   0.64744083  0.00266297  0.35255917
   0.21476591  0.96297724  0.32777600
   0.49448084  0.32777600  0.96297724
   0.67222400  0.50551916  0.78523409
   0.03702276  0.78523409  0.50551916
 
 position of ions in cartesian coordinates  (Angst):
   4.13548050  7.15543666  2.34587610
   4.13548050  7.15543666  4.97777995
   4.13548050  7.15543666  7.44992182
   2.06774025  3.57771833  2.44914199
   6.20322074 10.73315499  7.33977671
   6.20322074 10.73315499  4.93362834
   2.06774025  3.57771833  0.04299362
   4.13548050  2.49170274  3.61617899
   4.13548050 11.81917058  3.61617899
   4.13548050  9.58869855  5.35549047
   4.13548050  4.72217478  5.35549047
   5.93562321  8.48644218  3.81596150
   2.33533778  5.82443114  3.81596150
   2.33533778  8.48644218  3.81596150
   5.93562321  5.82443114  3.81596150
   4.13548050  7.15543666  9.73751363
   4.13548050  9.65909674  1.73726173
   4.13548050  4.65177658  1.73726173
   2.24367149  8.42726653  6.31260265
   6.02728950  5.88360680  6.31260265
   6.02728950  8.42726653  6.31260265
   2.24367149  5.88360680  6.31260265
 


--------------------------------------------------------------------------------------------------------


 k-point  1 :  0.00000.00000.0000  plane waves:    3319
 k-point  2 :  0.14290.00000.0000  plane waves:    3324
 k-point  3 :  0.28570.00000.0000  plane waves:    3333
 k-point  4 :  0.42860.00000.0000  plane waves:    3335
 k-point  5 :  0.14290.14290.0000  plane waves:    3320
 k-point  6 :  0.28570.14290.0000  plane waves:    3332
 k-point  7 :  0.42860.14290.0000  plane waves:    3331
 k-point  8 :  -.42860.14290.0000  plane waves:    3335
 k-point  9 :  -.28570.14290.0000  plane waves:    3334
 k-point 10 :  -.14290.14290.0000  plane waves:    3325
 k-point 11 :  0.28570.28570.0000  plane waves:    3330
 k-point 12 :  0.42860.28570.0000  plane waves:    3330
 k-point 13 :  -.42860.28570.0000  plane waves:    3321
 k-point 14 :  -.28570.28570.0000  plane waves:    3319
 k-point 15 :  0.42860.42860.0000  plane waves:    3332
 k-point 16 :  -.42860.42860.0000  plane waves:    3329
 k-point 17 :  0.14290.00000.1429  plane waves:    3335
 k-point 18 :  0.28570.00000.1429  plane waves:    3332
 k-point 19 :  0.42860.00000.1429  plane waves:    3332
 k-point 20 :  -.42860.00000.1429  plane waves:    3339
 k-point 21 :  -.28570.00000.1429  plane waves:    3351
 k-point 22 :  -.14290.00000.1429  plane waves:    3334
 k-point 23 :  0.00000.14290.1429  plane waves:    3323
 k-point 24 :  0.28570.14290.1429  plane waves:    3332
 k-point 25 :  0.42860.14290.1429  plane waves:    3339
 k-point 26 :  -.42860.14290.1429  plane waves:    3331
 k-point 27 :  -.28570.14290.1429  plane waves:    3347
 k-point 28 :  -.14290.14290.1429  plane waves:    3349
 k-point 29 :  0.42860.28570.1429  plane waves:    3332
 k-point 30 :  -.42860.28570.1429  plane waves:    3333
 k-point 31 :  -.28570.28570.1429  plane waves:    3343
 k-point 32 :  -.14290.28570.1429  plane waves:    3356
 k-point 33 :  0.28570.42860.1429  plane waves:    3331
 k-point 34 :  -.42860.42860.1429  plane waves:    3341
 k-point 35 :  -.28570.42860.1429  plane waves:    3327
 k-point 36 :  0.2857-.42860.1429  plane waves:    3336
 k-point 37 :  0.4286-.42860.1429  plane waves:    3330
 k-point 38 :  0.2857-.28570.1429  plane waves:    3333
 k-point 39 :  0.4286-.28570.1429  plane waves:    3324
 k-point 40 :  0.2857-.14290.1429  plane waves:    3328
 k-point 41 :  0.28570.00000.2857  plane waves:    3354
 k-point 42 :  0.42860.00000.2857  plane waves:    3342
 k-point 43 :  -.42860.00000.2857  plane waves:    3341
 k-point 44 :  -.28570.00000.2857  plane waves:    3341
 k-point 45 :  0.42860.14290.2857  plane waves:    3312
 k-point 46 :  -.42860.14290.2857  plane waves:    3345
 k-point 47 :  -.28570.14290.2857  plane waves:    3341
 k-point 48 :  -.14290.14290.2857  plane waves:    3350
 k-point 49 :  0.00000.28570.2857  plane waves:    3356
 k-point 50 :  -.42860.28570.2857  plane waves:    3343
 k-point 51 :  -.28570.28570.2857  plane waves:    3350
 k-point 52 :  -.14290.28570.2857  plane waves:    3355
 k-point 53 :  -.28570.42860.2857  plane waves:    3348
 k-point 54 :  -.14290.42860.2857  plane waves:    3355
 k-point 55 :  0.4286-.28570.2857  plane waves:    3340
 k-point 56 :  0.4286-.14290.2857  plane waves:    3336
 k-point 57 :  0.42860.00000.4286  plane waves:    3322
 k-point 58 :  -.42860.00000.4286  plane waves:    3337
 k-point 59 :  -.42860.14290.4286  plane waves:    3346
 k-point 60 :  -.28570.14290.4286  plane waves:    3343
 k-point 61 :  -.28570.28570.4286  plane waves:    3361
 k-point 62 :  -.14290.28570.4286  plane waves:    3351
 k-point 63 :  0.00000.42860.4286  plane waves:    3368
 k-point 64 :  -.14290.42860.4286  plane waves:    3350

 maximum and minimum number of plane-waves per node :      3368     3312

 maximum number of plane-waves:      3368
 maximum index in each direction: 
   IXMAX=   12   IYMAX=   12   IZMAX=    8
   IXMIN=  -12   IYMIN=  -12   IZMIN=   -9

 WARNING: aliasing errors must be expected set NGX to  50 to avoid them
 WARNING: aliasing errors must be expected set NGY to  50 to avoid them
 WARNING: aliasing errors must be expected set NGZ to  36 to avoid them
 aliasing errors are usually negligible using standard VASP settings
 and one can safely disregard these warnings

 serial   3D FFT for wavefunctions
 parallel 3D FFT for charge:
    minimum data exchange during FFTs selected (reduces bandwidth)


 total amount of memory used by VASP on root node   151192. kBytes
========================================================================

   base      :      30000. kBytes
   nonlr-proj:       6567. kBytes
   fftplans  :       2672. kBytes
   grid      :       5640. kBytes
   one-center:        342. kBytes
   wavefun   :     105971. kBytes
 
 Broyden mixing: mesh for mixing (old mesh)
   NGX = 23   NGY = 25   NGZ = 17
  (NGX  = 72   NGY  = 72   NGZ  = 56)
  gives a total of   9775 points

 initial charge density was supplied:
 charge density of overlapping atoms calculated
 number of electron     186.0000000 magnetization 
 keeping initial charge density in first step


--------------------------------------------------------------------------------------------------------


 Maximum index for non-local projection operator         2120
 Maximum index for augmentation-charges         1195 (set IRDMAX)


--------------------------------------------------------------------------------------------------------


 First call to EWALD:  gamma=   0.268
 Maximum number of real-space cells 3x 3x 3
 Maximum number of reciprocal cells 3x 3x 3

    FEWALD:  cpu time    0.01: real time    0.00


----------------------------------------- Iteration    1(   1)  ---------------------------------------


    POTLOK:  cpu time    0.06: real time    0.06
    SETDIJ:  cpu time    0.02: real time    0.02
     EDDAV:  cpu time   35.46: real time   35.58
       DOS:  cpu time    0.02: real time    0.01
    --------------------------------------------
      LOOP:  cpu time   35.57: real time   35.68

 eigenvalue-minimisations  : 14336
 total energy-change (2. order) : 0.1434001E+04  (-0.5141825E+04)
 number of electron     186.0000000 magnetization 
 augmentation part      186.0000000 magnetization 

 Free energy of the ion-electron system (eV)
  ---------------------------------------------------
  alpha Z        PSCENC =       635.82840152
  Ewald energy   TEWEN  =    -14599.44411377
  -1/2 Hartree   DENC   =     -7670.21634094
  -exchange  EXHF       =         0.00000000
  -V(xc)+E(xc)   XCENC  =       504.54386048
  PAW double counting   =     18886.50099806   -20250.44635219
  entropy T*S    EENTRO =        -0.00367691
  eigenvalues    EBANDS =      2688.44179294
  atomic energy  EATOM  =     21238.79660792
  ---------------------------------------------------
  free energy    TOTEN  =      1434.00117710 eV

  energy without entropy =     1434.00485401  energy(sigma->0) =     1434.00240273


--------------------------------------------------------------------------------------------------------




----------------------------------------- Iteration    1(   2)  ---------------------------------------


     EDDAV:  cpu time   35.36: real time   35.48
       DOS:  cpu time    0.01: real time    0.01
    --------------------------------------------
      LOOP:  cpu time   35.37: real time   35.49

 eigenvalue-minimisations  : 14336
 total energy-change (2. order) :-0.1343624E+04  (-0.1308762E+04)
 number of electron     186.0000000 magnetization 
 augmentation part      186.0000000 magnetization 

 Free energy of the ion-electron system (eV)
  ---------------------------------------------------
  alpha Z        PSCENC =       635.82840152
  Ewald energy   TEWEN  =    -14599.44411377
  -1/2 Hartree   DENC   =     -7670.21634094
  -exchange  EXHF       =         0.00000000
  -V(xc)+E(xc)   XCENC  =       504.54386048
  PAW double counting   =     18886.50099806   -20250.44635219
  entropy T*S    EENTRO =        -0.00182470
  eigenvalues    EBANDS =      1344.81562634
  atomic energy  EATOM  =     21238.79660792
  ---------------------------------------------------
  free energy    TOTEN  =        90.37686271 eV

  energy without entropy =       90.37868741  energy(sigma->0) =       90.37747095


--------------------------------------------------------------------------------------------------------




----------------------------------------- Iteration    1(   3)  ---------------------------------------


     EDDAV:  cpu time   36.18: real time   36.31
       DOS:  cpu time    0.02: real time    0.01
    --------------------------------------------
      LOOP:  cpu time   36.20: real time   36.33

 eigenvalue-minimisations  : 14776
 total energy-change (2. order) :-0.1852055E+03  (-0.1676420E+03)
 number of electron     186.0000000 magnetization 
 augmentation part      186.0000000 magnetization 

 Free energy of the ion-electron system (eV)
  ---------------------------------------------------
  alpha Z        PSCENC =       635.82840152
  Ewald energy   TEWEN  =    -14599.44411377
  -1/2 Hartree   DENC   =     -7670.21634094
  -exchange  EXHF       =         0.00000000
  -V(xc)+E(xc)   XCENC  =       504.54386048
  PAW double counting   =     18886.50099806   -20250.44635219
  entropy T*S    EENTRO =        -0.00180365
  eigenvalues    EBANDS =      1159.61013450
  atomic energy  EATOM  =     21238.79660792
  ---------------------------------------------------
  free energy    TOTEN  =       -94.82860809 eV

  energy without entropy =      -94.82680443  energy(sigma->0) =      -94.82800687


--------------------------------------------------------------------------------------------------------




----------------------------------------- Iteration    1(   4)  ---------------------------------------


     EDDAV:  cpu time   46.39: real time   46.54
       DOS:  cpu time    0.01: real time    0.01
    --------------------------------------------
      LOOP:  cpu time   46.40: real time   46.56

 eigenvalue-minimisations  : 20232
 total energy-change (2. order) :-0.9492206E+01  (-0.9262713E+01)
 number of electron     186.0000000 magnetization 
 augmentation part      186.0000000 magnetization 

 Free energy of the ion-electron system (eV)
  ---------------------------------------------------
  alpha Z        PSCENC =       635.82840152
  Ewald energy   TEWEN  =    -14599.44411377
  -1/2 Hartree   DENC   =     -7670.21634094
  -exchange  EXHF       =         0.00000000
  -V(xc)+E(xc)   XCENC  =       504.54386048
  PAW double counting   =     18886.50099806   -20250.44635219
  entropy T*S    EENTRO =        -0.00120834
  eigenvalues    EBANDS =      1150.11733314
  atomic energy  EATOM  =     21238.79660792
  ---------------------------------------------------
  free energy    TOTEN  =      -104.32081413 eV

  energy without entropy =     -104.31960579  energy(sigma->0) =     -104.32041135


--------------------------------------------------------------------------------------------------------




----------------------------------------- Iteration    1(   5)  ---------------------------------------


     EDDAV:  cpu time   50.35: real time   50.51
       DOS:  cpu time    0.01: real time    0.01
    CHARGE:  cpu time    1.17: real time    1.17
    MIXING:  cpu time    0.00: real time    0.00
    --------------------------------------------
      LOOP:  cpu time   51.53: real time   51.70

 eigenvalue-minimisations  : 22112
 total energy-change (2. order) :-0.2334347E+00  (-0.2328409E+00)
 number of electron     185.9999839 magnetization 
 augmentation part       93.6116489 magnetization 

 Broyden mixing:
  rms(total) = 0.39433E+01    rms(broyden)= 0.39424E+01
  rms(prec ) = 0.60728E+01
  weight for this iteration     100.00

 Free energy of the ion-electron system (eV)
  ---------------------------------------------------
  alpha Z        PSCENC =       635.82840152
  Ewald energy   TEWEN  =    -14599.44411377
  -1/2 Hartree   DENC   =     -7670.21634094
  -exchange  EXHF       =         0.00000000
  -V(xc)+E(xc)   XCENC  =       504.54386048
  PAW double counting   =     18886.50099806   -20250.44635219
  entropy T*S    EENTRO =        -0.00117581
  eigenvalues    EBANDS =      1149.88386590
  atomic energy  EATOM  =     21238.79660792
  ---------------------------------------------------
  free energy    TOTEN  =      -104.55424884 eV

  energy without entropy =     -104.55307303  energy(sigma->0) =     -104.55385690


--------------------------------------------------------------------------------------------------------




----------------------------------------- Iteration    1(   6)  ---------------------------------------


    POTLOK:  cpu time    0.06: real time    0.06
    SETDIJ:  cpu time    0.01: real time    0.02
    EDDIAG:  cpu time    4.30: real time    4.31
  RMM-DIIS:  cpu time   21.17: real time   21.24
    ORTHCH:  cpu time    0.99: real time    0.99
       DOS:  cpu time    0.01: real time    0.01
    CHARGE:  cpu time    1.28: real time    1.28
    MIXING:  cpu time    0.00: real time    0.00
    --------------------------------------------
      LOOP:  cpu time   27.82: real time   27.91

 eigenvalue-minimisations  : 14349
 total energy-change (2. order) :-0.8441329E+00  (-0.3994128E+02)
 number of electron     185.9999795 magnetization 
 augmentation part      113.1651002 magnetization 

 Broyden mixing:
  rms(total) = 0.28875E+01    rms(broyden)= 0.28867E+01
  rms(prec ) = 0.43125E+01
  weight for this iteration     100.00

 eigenvalues of (default mixing * dielectric matrix)
  average eigenvalue GAMMA=   0.5780
  0.5780

 Free energy of the ion-electron system (eV)
  ---------------------------------------------------
  alpha Z        PSCENC =       635.82840152
  Ewald energy   TEWEN  =    -14599.44411377
  -1/2 Hartree   DENC   =     -7015.26173491
  -exchange  EXHF       =         0.00000000
  -V(xc)+E(xc)   XCENC  =       476.91190219
  PAW double counting   =     19148.35293154   -20386.31164990
  entropy T*S    EENTRO =         0.00295870
  eigenvalues    EBANDS =       395.72631503
  atomic energy  EATOM  =     21238.79660792
  ---------------------------------------------------
  free energy    TOTEN  =      -105.39838169 eV

  energy without entropy =     -105.40134038  energy(sigma->0) =     -105.39936792


--------------------------------------------------------------------------------------------------------




----------------------------------------- Iteration    1(   7)  ---------------------------------------


    POTLOK:  cpu time    0.07: real time    0.07
    SETDIJ:  cpu time    0.01: real time    0.02
    EDDIAG:  cpu time    4.13: real time    4.14
  RMM-DIIS:  cpu time   21.46: real time   21.53
    ORTHCH:  cpu time    0.99: real time    0.99
       DOS:  cpu time    0.01: real time    0.01
    CHARGE:  cpu time    1.30: real time    1.31
    MIXING:  cpu time    0.00: real time    0.00
    --------------------------------------------
      LOOP:  cpu time   27.97: real time   28.07

 eigenvalue-minimisations  : 14367
 total energy-change (2. order) : 0.2212351E+02  (-0.8155902E+01)
 number of electron     185.9999813 magnetization 
 augmentation part      105.4272458 magnetization 

 Broyden mixing:
  rms(total) = 0.30824E+00    rms(broyden)= 0.30761E+00
  rms(prec ) = 0.50748E+00
  weight for this iteration     100.00

 eigenvalues of (default mixing * dielectric matrix)
  average eigenvalue GAMMA=   1.0005
  0.6056  1.3954

 Free energy of the ion-electron system (eV)
  ---------------------------------------------------
  alpha Z        PSCENC =       635.82840152
  Ewald energy   TEWEN  =    -14599.44411377
  -1/2 Hartree   DENC   =     -7275.23584547
  -exchange  EXHF       =         0.00000000
  -V(xc)+E(xc)   XCENC  =       488.27314977
  PAW double counting   =     19864.44516006   -21212.54529140
  entropy T*S    EENTRO =         0.00675921
  eigenvalues    EBANDS =       776.60030395
  atomic energy  EATOM  =     21238.79660792
  ---------------------------------------------------
  free energy    TOTEN  =       -83.27486821 eV

  energy without entropy =      -83.28162742  energy(sigma->0) =      -83.27712128


--------------------------------------------------------------------------------------------------------




----------------------------------------- Iteration    1(   8)  ---------------------------------------


    POTLOK:  cpu time    0.06: real time    0.06
    SETDIJ:  cpu time    0.02: real time    0.02
    EDDIAG:  cpu time    4.31: real time    4.35
  RMM-DIIS:  cpu time   21.38: real time   21.44
    ORTHCH:  cpu time    0.99: real time    0.99
       DOS:  cpu time    0.01: real time    0.01
    CHARGE:  cpu time    1.31: real time    1.31
    MIXING:  cpu time    0.00: real time    0.00
    --------------------------------------------
      LOOP:  cpu time   28.09: real time   28.19

 eigenvalue-minimisations  : 14460
 total energy-change (2. order) : 0.1618174E+00  (-0.3870934E+00)
 number of electron     185.9999815 magnetization 
 augmentation part      104.2222592 magnetization 

 Broyden mixing:
  rms(total) = 0.25702E+00    rms(broyden)= 0.25687E+00
  rms(prec ) = 0.38936E+00
  weight for this iteration     100.00

 eigenvalues of (default mixing * dielectric matrix)
  average eigenvalue GAMMA=   0.9897
  1.7779  0.5956  0.5956

 Free energy of the ion-electron system (eV)
  ---------------------------------------------------
  alpha Z        PSCENC =       635.82840152
  Ewald energy   TEWEN  =    -14599.44411377
  -1/2 Hartree   DENC   =     -7299.38483369
  -exchange  EXHF       =         0.00000000
  -V(xc)+E(xc)   XCENC  =       489.05300186
  PAW double counting   =     20499.71228474   -21879.15667081
  entropy T*S    EENTRO =         0.00464789
  eigenvalues    EBANDS =       831.47762356
  atomic energy  EATOM  =     21238.79660792
  ---------------------------------------------------
  free energy    TOTEN  =       -83.11305078 eV

  energy without entropy =      -83.11769867  energy(sigma->0) =      -83.11460008


--------------------------------------------------------------------------------------------------------




----------------------------------------- Iteration    1(   9)  ---------------------------------------


    POTLOK:  cpu time    0.06: real time    0.06
    SETDIJ:  cpu time    0.02: real time    0.02
    EDDIAG:  cpu time    4.31: real time    4.33
  RMM-DIIS:  cpu time   21.50: real time   21.58
    ORTHCH:  cpu time    0.99: real time    0.99
       DOS:  cpu time    0.01: real time    0.01
    CHARGE:  cpu time    1.30: real time    1.30
    MIXING:  cpu time    0.00: real time    0.00
    --------------------------------------------
      LOOP:  cpu time   28.19: real time   28.30

 eigenvalue-minimisations  : 14463
 total energy-change (2. order) : 0.3275843E-01  (-0.4992904E-01)
 number of electron     185.9999816 magnetization 
 augmentation part      104.2775061 magnetization 

 Broyden mixing:
  rms(total) = 0.20528E+00    rms(broyden)= 0.20526E+00
  rms(prec ) = 0.32161E+00
  weight for this iteration     100.00

 eigenvalues of (default mixing * dielectric matrix)
  average eigenvalue GAMMA=   1.0096
  2.1650  0.7270  0.7270  0.4195

 Free energy of the ion-electron system (eV)
  ---------------------------------------------------
  alpha Z        PSCENC =       635.82840152
  Ewald energy   TEWEN  =    -14599.44411377
  -1/2 Hartree   DENC   =     -7284.75073802
  -exchange  EXHF       =         0.00000000
  -V(xc)+E(xc)   XCENC  =       488.38990206
  PAW double counting   =     20915.81168919   -22306.52472685
  entropy T*S    EENTRO =         0.00481428
  eigenvalues    EBANDS =       828.80787132
  atomic energy  EATOM  =     21238.79660792
  ---------------------------------------------------
  free energy    TOTEN  =       -83.08029236 eV

  energy without entropy =      -83.08510664  energy(sigma->0) =      -83.08189712


--------------------------------------------------------------------------------------------------------




----------------------------------------- Iteration    1(  10)  ---------------------------------------


    POTLOK:  cpu time    0.06: real time    0.06
    SETDIJ:  cpu time    0.02: real time    0.02
    EDDIAG:  cpu time    4.03: real time    4.05
  RMM-DIIS:  cpu time   21.94: real time   22.01
    ORTHCH:  cpu time    0.90: real time    0.90
       DOS:  cpu time    0.01: real time    0.01
    CHARGE:  cpu time    1.20: real time    1.20
    MIXING:  cpu time    0.00: real time    0.00
    --------------------------------------------
      LOOP:  cpu time   28.16: real time   28.26

 eigenvalue-minimisations  : 14504
 total energy-change (2. order) : 0.7096140E-01  (-0.1366636E-01)
 number of electron     185.9999814 magnetization 
 augmentation part      104.5846169 magnetization 

 Broyden mixing:
  rms(total) = 0.51382E-01    rms(broyden)= 0.51347E-01
  rms(prec ) = 0.88401E-01
  weight for this iteration     100.00

 eigenvalues of (default mixing * dielectric matrix)
  average eigenvalue GAMMA=   1.0237
  2.1773  0.9343  0.9343  0.6562  0.4167

 Free energy of the ion-electron system (eV)
  ---------------------------------------------------
  alpha Z        PSCENC =       635.82840152
  Ewald energy   TEWEN  =    -14599.44411377
  -1/2 Hartree   DENC   =     -7269.27574064
  -exchange  EXHF       =         0.00000000
  -V(xc)+E(xc)   XCENC  =       487.78008114
  PAW double counting   =     21096.26698521   -22489.33756977
  entropy T*S    EENTRO =         0.00490784
  eigenvalues    EBANDS =       816.37110961
  atomic energy  EATOM  =     21238.79660792
  ---------------------------------------------------
  free energy    TOTEN  =       -83.00933095 eV

  energy without entropy =      -83.01423879  energy(sigma->0) =      -83.01096690


--------------------------------------------------------------------------------------------------------




----------------------------------------- Iteration    1(  11)  ---------------------------------------


    POTLOK:  cpu time    0.06: real time    0.06
    SETDIJ:  cpu time    0.02: real time    0.02
    EDDIAG:  cpu time    4.29: real time    4.31
  RMM-DIIS:  cpu time   21.91: real time   21.99
    ORTHCH:  cpu time    0.96: real time    0.97
       DOS:  cpu time    0.01: real time    0.01
    CHARGE:  cpu time    1.19: real time    1.19
    MIXING:  cpu time    0.00: real time    0.00
    --------------------------------------------
      LOOP:  cpu time   28.44: real time   28.55

 eigenvalue-minimisations  : 14680
 total energy-change (2. order) : 0.4526413E-02  (-0.2135265E-02)
 number of electron     185.9999814 magnetization 
 augmentation part      104.6563147 magnetization 

 Broyden mixing:
  rms(total) = 0.30694E-01    rms(broyden)= 0.30664E-01
  rms(prec ) = 0.49995E-01
  weight for this iteration     100.00

 eigenvalues of (default mixing * dielectric matrix)
  average eigenvalue GAMMA=   1.1079
  2.1210  2.1210  0.8769  0.6805  0.4242  0.4242

 Free energy of the ion-electron system (eV)
  ---------------------------------------------------
  alpha Z        PSCENC =       635.82840152
  Ewald energy   TEWEN  =    -14599.44411377
  -1/2 Hartree   DENC   =     -7265.00043299
  -exchange  EXHF       =         0.00000000
  -V(xc)+E(xc)   XCENC  =       487.68092970
  PAW double counting   =     21142.12838921   -22535.78076856
  entropy T*S    EENTRO =         0.00512290
  eigenvalues    EBANDS =       812.78105954
  atomic energy  EATOM  =     21238.79660792
  ---------------------------------------------------
  free energy    TOTEN  =       -83.00480454 eV

  energy without entropy =      -83.00992743  energy(sigma->0) =      -83.00651217


--------------------------------------------------------------------------------------------------------




----------------------------------------- Iteration    1(  12)  ---------------------------------------


    POTLOK:  cpu time    0.06: real time    0.06
    SETDIJ:  cpu time    0.01: real time    0.02
    EDDIAG:  cpu time    4.18: real time    4.19
  RMM-DIIS:  cpu time   20.87: real time   20.94
    ORTHCH:  cpu time    0.93: real time    0.94
       DOS:  cpu time    0.01: real time    0.01
    CHARGE:  cpu time    1.26: real time    1.26
    MIXING:  cpu time    0.00: real time    0.00
    --------------------------------------------
      LOOP:  cpu time   27.33: real time   27.43

 eigenvalue-minimisations  : 14605
 total energy-change (2. order) : 0.1392532E-02  (-0.8210856E-03)
 number of electron     185.9999814 magnetization 
 augmentation part      104.7031602 magnetization 

 Broyden mixing:
  rms(total) = 0.98973E-02    rms(broyden)= 0.98201E-02
  rms(prec ) = 0.11664E-01
  weight for this iteration     100.00

 eigenvalues of (default mixing * dielectric matrix)
  average eigenvalue GAMMA=   1.1230
  2.2592  2.2592  0.8965  0.8965  0.6778  0.4641  0.4079

 Free energy of the ion-electron system (eV)
  ---------------------------------------------------
  alpha Z        PSCENC =       635.82840152
  Ewald energy   TEWEN  =    -14599.44411377
  -1/2 Hartree   DENC   =     -7262.73127981
  -exchange  EXHF       =         0.00000000
  -V(xc)+E(xc)   XCENC  =       487.63426059
  PAW double counting   =     21162.93846788   -22556.74770493
  entropy T*S    EENTRO =         0.00512550
  eigenvalues    EBANDS =       810.71682309
  atomic energy  EATOM  =     21238.79660792
  ---------------------------------------------------
  free energy    TOTEN  =       -83.00341201 eV

  energy without entropy =      -83.00853751  energy(sigma->0) =      -83.00512051


--------------------------------------------------------------------------------------------------------




----------------------------------------- Iteration    1(  13)  ---------------------------------------


    POTLOK:  cpu time    0.06: real time    0.06
    SETDIJ:  cpu time    0.02: real time    0.02
    EDDIAG:  cpu time    4.16: real time    4.18
  RMM-DIIS:  cpu time   29.49: real time   29.59
    ORTHCH:  cpu time    0.90: real time    0.91
       DOS:  cpu time    0.01: real time    0.01
    CHARGE:  cpu time    1.27: real time    1.28
    MIXING:  cpu time    0.00: real time    0.00
    --------------------------------------------
      LOOP:  cpu time   35.91: real time   36.04

 eigenvalue-minimisations  : 19359
 total energy-change (2. order) :-0.1094242E-03  (-0.1883351E-03)
 number of electron     185.9999814 magnetization 
 augmentation part      104.7223570 magnetization 

 Broyden mixing:
  rms(total) = 0.72427E-02    rms(broyden)= 0.71444E-02
  rms(prec ) = 0.90944E-02
  weight for this iteration     100.00

 eigenvalues of (default mixing * dielectric matrix)
  average eigenvalue GAMMA=   1.2428
  2.7233  2.7233  1.1124  1.1124  0.4069  0.4622  0.7011  0.7011

 Free energy of the ion-electron system (eV)
  ---------------------------------------------------
  alpha Z        PSCENC =       635.82840152
  Ewald energy   TEWEN  =    -14599.44411377
  -1/2 Hartree   DENC   =     -7262.43660081
  -exchange  EXHF       =         0.00000000
  -V(xc)+E(xc)   XCENC  =       487.63052483
  PAW double counting   =     21162.27137490   -22555.85029659
  entropy T*S    EENTRO =         0.00515260
  eigenvalues    EBANDS =       810.19542798
  atomic energy  EATOM  =     21238.79660792
  ---------------------------------------------------
  free energy    TOTEN  =       -83.00352143 eV

  energy without entropy =      -83.00867403  energy(sigma->0) =      -83.00523896


--------------------------------------------------------------------------------------------------------




----------------------------------------- Iteration    1(  14)  ---------------------------------------


    POTLOK:  cpu time    0.06: real time    0.06
    SETDIJ:  cpu time    0.01: real time    0.02
    EDDIAG:  cpu time    4.10: real time    4.11
  RMM-DIIS:  cpu time   22.18: real time   22.26
    ORTHCH:  cpu time    0.92: real time    0.92
       DOS:  cpu time    0.01: real time    0.01
    CHARGE:  cpu time    1.25: real time    1.25
    MIXING:  cpu time    0.00: real time    0.00
    --------------------------------------------
      LOOP:  cpu time   28.54: real time   28.64

 eigenvalue-minimisations  : 14781
 total energy-change (2. order) : 0.2084436E-04  (-0.2360381E-04)
 number of electron     185.9999814 magnetization 
 augmentation part      104.7200617 magnetization 

 Broyden mixing:
  rms(total) = 0.46309E-02    rms(broyden)= 0.44778E-02
  rms(prec ) = 0.71297E-02
  weight for this iteration     100.00

 eigenvalues of (default mixing * dielectric matrix)
  average eigenvalue GAMMA=   1.2084
  2.6960  2.6960  1.2994  1.2994  0.8829  0.6784  0.4094  0.4571  0.4571

 Free energy of the ion-electron system (eV)
  ---------------------------------------------------
  alpha Z        PSCENC =       635.82840152
  Ewald energy   TEWEN  =    -14599.44411377
  -1/2 Hartree   DENC   =     -7262.82299522
  -exchange  EXHF       =         0.00000000
  -V(xc)+E(xc)   XCENC  =       487.65228243
  PAW double counting   =     21154.40045082   -22547.72040693
  entropy T*S    EENTRO =         0.00516833
  eigenvalues    EBANDS =       810.30110432
  atomic energy  EATOM  =     21238.79660792
  ---------------------------------------------------
  free energy    TOTEN  =       -83.00350059 eV

  energy without entropy =      -83.00866892  energy(sigma->0) =      -83.00522336


--------------------------------------------------------------------------------------------------------




----------------------------------------- Iteration    1(  15)  ---------------------------------------


    POTLOK:  cpu time    0.06: real time    0.06
    SETDIJ:  cpu time    0.02: real time    0.02
    EDDIAG:  cpu time    4.13: real time    4.15
  RMM-DIIS:  cpu time   21.77: real time   21.84
    ORTHCH:  cpu time    0.94: real time    0.94
       DOS:  cpu time    0.01: real time    0.01
    CHARGE:  cpu time    1.23: real time    1.24
    MIXING:  cpu time    0.00: real time    0.00
    --------------------------------------------
      LOOP:  cpu time   28.16: real time   28.27

 eigenvalue-minimisations  : 14482
 total energy-change (2. order) : 0.3407977E-04  (-0.1945175E-04)
 number of electron     185.9999814 magnetization 
 augmentation part      104.7102242 magnetization 

 Broyden mixing:
  rms(total) = 0.20425E-02    rms(broyden)= 0.16670E-02
  rms(prec ) = 0.24311E-02
  weight for this iteration     100.00
  WARNING: grid for Broyden might be to small

 eigenvalues of (default mixing * dielectric matrix)
  average eigenvalue GAMMA=   1.1985
  2.9147  2.4403  1.3501  1.2209  1.2209  0.8628  0.6832  0.4574  0.4086  0.4259

 Free energy of the ion-electron system (eV)
  ---------------------------------------------------
  alpha Z        PSCENC =       635.82840152
  Ewald energy   TEWEN  =    -14599.44411377
  -1/2 Hartree   DENC   =     -7263.06927668
  -exchange  EXHF       =         0.00000000
  -V(xc)+E(xc)   XCENC  =       487.66400289
  PAW double counting   =     21155.36747915   -22548.82732003
  entropy T*S    EENTRO =         0.00514370
  eigenvalues    EBANDS =       810.67560880
  atomic energy  EATOM  =     21238.79660792
  ---------------------------------------------------
  free energy    TOTEN  =       -83.00346651 eV

  energy without entropy =      -83.00861021  energy(sigma->0) =      -83.00518107


--------------------------------------------------------------------------------------------------------




----------------------------------------- Iteration    1(  16)  ---------------------------------------


    POTLOK:  cpu time    0.07: real time    0.06
    SETDIJ:  cpu time    0.01: real time    0.02
    EDDIAG:  cpu time    4.17: real time    4.18
  RMM-DIIS:  cpu time   21.48: real time   21.55
    ORTHCH:  cpu time    0.91: real time    0.92
       DOS:  cpu time    0.01: real time    0.01
    CHARGE:  cpu time    1.31: real time    1.31
    MIXING:  cpu time    0.00: real time    0.00
    --------------------------------------------
      LOOP:  cpu time   27.96: real time   28.06

 eigenvalue-minimisations  : 14288
 total energy-change (2. order) :-0.8688898E-05  (-0.2294904E-05)
 number of electron     185.9999814 magnetization 
 augmentation part      104.7137390 magnetization 

 Broyden mixing:
  rms(total) = 0.14248E-02    rms(broyden)= 0.79975E-03
  rms(prec ) = 0.11311E-02
  weight for this iteration     100.00
  WARNING: grid for Broyden might be to small

 eigenvalues of (default mixing * dielectric matrix)
  average eigenvalue GAMMA=   1.1678
  2.9436  2.3629  1.7158  1.2539  1.2539  0.8518  0.6836  0.4760  0.4760  0.4087
  0.4195

 Free energy of the ion-electron system (eV)
  ---------------------------------------------------
  alpha Z        PSCENC =       635.82840152
  Ewald energy   TEWEN  =    -14599.44411377
  -1/2 Hartree   DENC   =     -7262.92829102
  -exchange  EXHF       =         0.00000000
  -V(xc)+E(xc)   XCENC  =       487.65758614
  PAW double counting   =     21154.63796280   -22548.09787698
  entropy T*S    EENTRO =         0.00514653
  eigenvalues    EBANDS =       810.54110166
  atomic energy  EATOM  =     21238.79660792
  ---------------------------------------------------
  free energy    TOTEN  =       -83.00347519 eV

  energy without entropy =      -83.00862172  energy(sigma->0) =      -83.00519070


--------------------------------------------------------------------------------------------------------




----------------------------------------- Iteration    1(  17)  ---------------------------------------


    POTLOK:  cpu time    0.06: real time    0.07
    SETDIJ:  cpu time    0.02: real time    0.02
    EDDIAG:  cpu time    4.26: real time    4.28
  RMM-DIIS:  cpu time   15.55: real time   15.61
    ORTHCH:  cpu time    0.98: real time    0.98
       DOS:  cpu time    0.01: real time    0.01
    CHARGE:  cpu time    1.29: real time    1.30
    MIXING:  cpu time    0.00: real time    0.00
    --------------------------------------------
      LOOP:  cpu time   22.18: real time   22.27

 eigenvalue-minimisations  :  9545
 total energy-change (2. order) : 0.1231576E-05  (-0.3519931E-06)
 number of electron     185.9999814 magnetization 
 augmentation part      104.7133385 magnetization 

 Broyden mixing:
  rms(total) = 0.12664E-02    rms(broyden)= 0.46215E-03
  rms(prec ) = 0.57524E-03
  weight for this iteration     100.00
  WARNING: grid for Broyden might be to small

 eigenvalues of (default mixing * dielectric matrix)
  average eigenvalue GAMMA=   1.2515
  3.5389  2.6033  1.9792  1.3156  1.3156  1.0228  0.8538  0.6835  0.4592  0.4386
  0.4095  0.3977

 Free energy of the ion-electron system (eV)
  ---------------------------------------------------
  alpha Z        PSCENC =       635.82840152
  Ewald energy   TEWEN  =    -14599.44411377
  -1/2 Hartree   DENC   =     -7262.93674292
  -exchange  EXHF       =         0.00000000
  -V(xc)+E(xc)   XCENC  =       487.65771521
  PAW double counting   =     21153.89686990   -22547.36345547
  entropy T*S    EENTRO =         0.00514410
  eigenvalues    EBANDS =       810.55609954
  atomic energy  EATOM  =     21238.79660792
  ---------------------------------------------------
  free energy    TOTEN  =       -83.00347396 eV

  energy without entropy =      -83.00861806  energy(sigma->0) =      -83.00518866


--------------------------------------------------------------------------------------------------------




----------------------------------------- Iteration    1(  18)  ---------------------------------------


    POTLOK:  cpu time    0.06: real time    0.06
    SETDIJ:  cpu time    0.02: real time    0.02
    EDDIAG:  cpu time    4.35: real time    4.36
  RMM-DIIS:  cpu time   13.34: real time   13.38
    ORTHCH:  cpu time    0.97: real time    0.98
       DOS:  cpu time    0.01: real time    0.01
    CHARGE:  cpu time    1.28: real time    1.28
    MIXING:  cpu time    0.00: real time    0.00
    --------------------------------------------
      LOOP:  cpu time   20.03: real time   20.11

 eigenvalue-minimisations  :  8123
 total energy-change (2. order) : 0.2477445E-05  (-0.2032148E-06)
 number of electron     185.9999814 magnetization 
 augmentation part      104.7122653 magnetization 

 Broyden mixing:
  rms(total) = 0.12067E-02    rms(broyden)= 0.25677E-03
  rms(prec ) = 0.38245E-03
  weight for this iteration     100.00
  WARNING: grid for Broyden might be to small

 eigenvalues of (default mixing * dielectric matrix)
  average eigenvalue GAMMA=   1.2134
  2.9076  2.5719  1.9123  1.4636  1.3171  1.3171  1.0672  0.8408  0.6847  0.4603
  0.4087  0.4317  0.3920

 Free energy of the ion-electron system (eV)
  ---------------------------------------------------
  alpha Z        PSCENC =       635.82840152
  Ewald energy   TEWEN  =    -14599.44411377
  -1/2 Hartree   DENC   =     -7262.97963328
  -exchange  EXHF       =         0.00000000
  -V(xc)+E(xc)   XCENC  =       487.65924270
  PAW double counting   =     21152.02561522   -22545.49303013
  entropy T*S    EENTRO =         0.00514391
  eigenvalues    EBANDS =       810.59829443
  atomic energy  EATOM  =     21238.79660792
  ---------------------------------------------------
  free energy    TOTEN  =       -83.00347149 eV

  energy without entropy =      -83.00861540  energy(sigma->0) =      -83.00518612


--------------------------------------------------------------------------------------------------------




----------------------------------------- Iteration    1(  19)  ---------------------------------------


    POTLOK:  cpu time    0.06: real time    0.06
    SETDIJ:  cpu time    0.01: real time    0.02
    EDDIAG:  cpu time    4.40: real time    4.42
  RMM-DIIS:  cpu time   13.57: real time   13.62
    ORTHCH:  cpu time    0.94: real time    0.94
       DOS:  cpu time    0.01: real time    0.01
    CHARGE:  cpu time    1.34: real time    1.34
    MIXING:  cpu time    0.00: real time    0.00
    --------------------------------------------
      LOOP:  cpu time   20.34: real time   20.42

 eigenvalue-minimisations  :  7955
 total energy-change (2. order) :-0.2394383E-05  (-0.8231774E-07)
 number of electron     185.9999814 magnetization 
 augmentation part      104.7128772 magnetization 

 Broyden mixing:
  rms(total) = 0.11866E-02    rms(broyden)= 0.13381E-03
  rms(prec ) = 0.15895E-03
  weight for this iteration     100.00
  WARNING: grid for Broyden might be to small

 eigenvalues of (default mixing * dielectric matrix)
  average eigenvalue GAMMA=   1.2027
  3.0998  2.5535  1.9432  1.9432  1.2629  1.2629  1.0389  0.8405  0.6845  0.5258
  0.4618  0.4087  0.4277  0.3839

 Free energy of the ion-electron system (eV)
  ---------------------------------------------------
  alpha Z        PSCENC =       635.82840152
  Ewald energy   TEWEN  =    -14599.44411377
  -1/2 Hartree   DENC   =     -7262.94792848
  -exchange  EXHF       =         0.00000000
  -V(xc)+E(xc)   XCENC  =       487.65792454
  PAW double counting   =     21152.48012560   -22545.95801294
  entropy T*S    EENTRO =         0.00514426
  eigenvalues    EBANDS =       810.57837748
  atomic energy  EATOM  =     21238.79660792
  ---------------------------------------------------
  free energy    TOTEN  =       -83.00347388 eV

  energy without entropy =      -83.00861814  energy(sigma->0) =      -83.00518863


--------------------------------------------------------------------------------------------------------




----------------------------------------- Iteration    1(  20)  ---------------------------------------


    POTLOK:  cpu time    0.06: real time    0.07
    SETDIJ:  cpu time    0.02: real time    0.02
    EDDIAG:  cpu time    4.38: real time    4.40
  RMM-DIIS:  cpu time   13.90: real time   13.94
    ORTHCH:  cpu time    1.01: real time    1.02
       DOS:  cpu time    0.01: real time    0.01
    --------------------------------------------
      LOOP:  cpu time   19.39: real time   19.46

 eigenvalue-minimisations  :  7856
 total energy-change (2. order) :-0.1507324E-06  (-0.3047727E-07)
 number of electron     185.9999814 magnetization 
 augmentation part      104.7128772 magnetization 

 Free energy of the ion-electron system (eV)
  ---------------------------------------------------
  alpha Z        PSCENC =       635.82840152
  Ewald energy   TEWEN  =    -14599.44411377
  -1/2 Hartree   DENC   =     -7262.94692914
  -exchange  EXHF       =         0.00000000
  -V(xc)+E(xc)   XCENC  =       487.65792217
  PAW double counting   =     21152.27305630   -22545.75414560
  entropy T*S    EENTRO =         0.00514446
  eigenvalues    EBANDS =       810.58058212
  atomic energy  EATOM  =     21238.79660792
  ---------------------------------------------------
  free energy    TOTEN  =       -83.00347403 eV

  energy without entropy =      -83.00861849  energy(sigma->0) =      -83.00518885


--------------------------------------------------------------------------------------------------------




 average (electrostatic) potential at core
  the test charge radii are     0.9430  1.0406
  (the norm of the test charge is              1.0000)
       1 -64.2012       2 -63.9200       3 -64.1817       4 -64.0482       5 -64.0482
       6 -63.6363       7 -63.6363       8 -63.3036       9 -63.3038      10 -63.8279
      11 -63.8279      12 -63.6912      13 -63.6912      14 -63.6912      15 -63.6912
      16 -72.7016      17 -72.6684      18 -72.6683      19 -72.4571      20 -72.4570
      21 -72.4572      22 -72.4567
 
 
 
 E-fermi :   7.8719     XC(G=0): -11.7533     alpha+bet :-14.1528


 k-point   1 :       0.0000    0.0000    0.0000
  band No.  band energies     occupation 
      1      -2.5422      2.00000
      2       0.1474      2.00000
      3       0.3891      2.00000
      4       0.5326      2.00000
      5       1.0118      2.00000
      6       1.0911      2.00000
      7       1.4840      2.00000
      8       2.1044      2.00000
      9       2.2430      2.00000
     10       2.3882      2.00000
     11       2.7345      2.00000
     12       2.8481      2.00000
     13       2.8781      2.00000
     14       3.1322      2.00000
     15       3.1860      2.00000
     16       3.2601      2.00000
     17       3.4414      2.00000
     18       3.4453      2.00000
[...]
     43       4.3264      2.00000
     44       4.3737      2.00000
     45       4.3821      2.00000
     46       4.4133      2.00000
     47       4.4179      2.00000
     48       4.4353      2.00000
     49       4.4938      2.00000
     50       4.4968      2.00000
     51       4.6402      2.00000
     52       4.6896      2.00000
     53       4.6952      2.00000
     54       4.7908      2.00000
     55       4.8047      2.00000
     56       4.8332      2.00000
     57       4.9098      2.00000
     58       4.9102      2.00000
     59       4.9367      2.00000
     60       5.0078      2.00000
     61       5.0466      2.00000
     62       5.0669      2.00000
     63       5.0775      2.00000
     64       5.1503      2.00000
     65       5.1972      2.00000
     66       5.2170      2.00000
     67       5.2260      2.00000
     68       5.2362      2.00000
     69       5.2386      2.00000
     70       5.2882      2.00000
     71       5.2964      2.00000
     72       5.3363      2.00000
     73       5.3465      2.00000
     74       5.3566      2.00000
     75       5.4772      2.00000
     76       5.5045      2.00000
     77       5.5427      2.00000
     78       5.5471      2.00000
     79       5.5734      2.00000
     80       5.6116      2.00000
     81       5.6514      2.00000
     82       5.7993      2.00000
     83       5.8373      2.00000
     84       5.9006      2.00000
     85       5.9193      2.00000
     86       5.9629      2.00000
     87       6.2270      2.00000
     88       6.4691      2.00000
     89       6.7852      2.00000
     90       7.1113      2.00001
     91       7.5073      2.04957
     92       7.6860      1.89741
     93       8.5808      0.00000
     94       8.8129      0.00000
     95       8.8202      0.00000
     96       9.2513      0.00000
     97       9.2852      0.00000
     98       9.5054      0.00000
     99       9.5149      0.00000
    100       9.5660      0.00000
    101      10.4324      0.00000
    102      10.4740      0.00000
    103      10.5360      0.00000
    104      11.0070      0.00000
    105      11.2070      0.00000
    106      11.2945      0.00000
    107      11.3777      0.00000
    108      12.1774      0.00000
    109      12.2654      0.00000
    110      12.3748      0.00000
    111      12.7111      0.00000
    112      12.8979      0.00000

 k-point  64 :      -0.1429    0.4286    0.4286
  band No.  band energies     occupation 
      1      -1.2816      2.00000
      2      -0.4495      2.00000
      3      -0.2664      2.00000
      4      -0.0526      2.00000
      5       0.7017      2.00000
      6       0.8939      2.00000
      7       1.1565      2.00000
      8       1.6137      2.00000
      9       2.1749      2.00000
     10       2.6690      2.00000
     11       2.7253      2.00000
     12       2.8179      2.00000
     13       2.8408      2.00000
     14       3.1001      2.00000
     15       3.1851      2.00000
     16       3.2981      2.00000
     17       3.3470      2.00000
     18       3.3911      2.00000
     19       3.4250      2.00000
     20       3.5010      2.00000
     21       3.5191      2.00000
     22       3.6172      2.00000
     23       3.6611      2.00000
     24       3.6742      2.00000
     25       3.7330      2.00000
     26       3.7421      2.00000
     27       3.8122      2.00000
     28       3.8623      2.00000
     29       3.8797      2.00000
     30       3.9016      2.00000
     31       3.9153      2.00000
     32       3.9383      2.00000
     33       4.0201      2.00000
     34       4.0413      2.00000
     35       4.0585      2.00000
     36       4.1061      2.00000
     37       4.1363      2.00000
     38       4.1541      2.00000
     39       4.1850      2.00000
     40       4.2029      2.00000
     41       4.2340      2.00000
     42       4.2977      2.00000
     43       4.3289      2.00000
     44       4.3591      2.00000
     45       4.3841      2.00000
     46       4.3987      2.00000
     47       4.4249      2.00000
     48       4.4583      2.00000
     49       4.5091      2.00000
     50       4.5243      2.00000
     51       4.6610      2.00000
     52       4.6988      2.00000
     53       4.7183      2.00000
     54       4.7753      2.00000
     55       4.8121      2.00000
     56       4.8279      2.00000
     57       4.8853      2.00000
     58       4.9200      2.00000
     59       4.9867      2.00000
     60       5.0017      2.00000
     61       5.0420      2.00000
     62       5.0610      2.00000
     63       5.0735      2.00000
     64       5.1328      2.00000
     65       5.1459      2.00000
     66       5.1986      2.00000
     67       5.2116      2.00000
     68       5.2345      2.00000
     69       5.2522      2.00000
     70       5.2861      2.00000
     71       5.2909      2.00000
     72       5.3322      2.00000
     73       5.3659      2.00000
     74       5.3960      2.00000
     75       5.4384      2.00000
     76       5.4852      2.00000
     77       5.5170      2.00000
     78       5.5368      2.00000
     79       5.5664      2.00000
     80       5.6155      2.00000
     81       5.6796      2.00000
     82       5.7052      2.00000
     83       5.7463      2.00000
     84       5.8231      2.00000
     85       5.9560      2.00000
     86       6.0208      2.00000
     87       6.2726      2.00000
     88       6.4829      2.00000
     89       6.8690      2.00000
     90       7.3004      2.00149
     91       7.5861      2.06988
     92       7.6881      1.88919
     93       7.9431      0.14575
     94       8.6775      0.00000
     95       9.1809      0.00000
     96       9.2102      0.00000
     97       9.3157      0.00000
     98       9.3948      0.00000
     99       9.5224      0.00000
    100       9.6089      0.00000
    101       9.9030      0.00000
    102      10.2437      0.00000
    103      10.7709      0.00000
    104      10.9730      0.00000
    105      11.1729      0.00000
    106      11.5286      0.00000
    107      11.6541      0.00000
    108      12.0435      0.00000
    109      12.1913      0.00000
    110      12.4825      0.00000
    111      12.6832      0.00000
    112      12.9908      0.00000


--------------------------------------------------------------------------------------------------------


 soft charge-density along one line, spin component           1
         0         1         2         3         4         5         6         7         8         9
 total charge-density along one line
 
 pseudopotential strength for first ion, spin component:           1
 -3.059   0.000   0.000   0.000   0.000  -4.591   0.000   0.000
  0.000  -3.086   0.000   0.000   0.000   0.000  -4.570   0.000
  0.000   0.000  -3.105   0.000  -0.017   0.000   0.000  -4.557
  0.000   0.000   0.000  -3.075   0.000   0.000   0.000   0.000
  0.000   0.000  -0.017   0.000  -3.062   0.000   0.000   0.012
 -4.591   0.000   0.000   0.000   0.000  10.185   0.000   0.000
  0.000  -4.570   0.000   0.000   0.000   0.000  10.171   0.000
  0.000   0.000  -4.557   0.000   0.012   0.000   0.000  10.163
  0.000   0.000   0.000  -4.578   0.000   0.000   0.000   0.000
  0.000   0.000   0.012   0.000  -4.589   0.000   0.000  -0.009
  0.000   0.000   0.004   0.000  -0.002   0.000   0.000   0.000
  0.000   0.000   0.008   0.000  -0.003   0.000   0.000   0.000
  0.000  -0.009   0.000   0.000   0.000   0.000   0.003   0.000
  0.000   0.000  -0.013   0.000   0.000   0.000   0.000   0.003
  0.000   0.000   0.000  -0.009   0.000   0.000   0.000   0.000
  0.000  -0.011   0.000   0.000   0.000   0.000   0.002   0.000
  0.000   0.000  -0.016   0.000   0.000   0.000   0.000   0.002
  0.000   0.000   0.000  -0.011   0.000   0.000   0.000   0.000
 total augmentation occupancy for first ion, spin component:           1
  1.909   0.000   0.000   0.000   0.000  -0.030   0.000   0.000   0.000   0.000   0.000   0.000   0.000   0.000   0.000   0.000
  0.000   1.918   0.000   0.000   0.000   0.000  -0.032   0.000   0.000   0.000   0.000   0.000   0.004   0.000   0.000  -0.006
  0.000   0.000   1.908   0.000  -0.005   0.000   0.000  -0.006   0.000   0.006   0.031  -0.005   0.000  -0.032   0.000   0.000
  0.000   0.000   0.000   1.907   0.000   0.000   0.000   0.000  -0.022   0.000   0.000   0.000   0.000   0.000   0.023   0.000
  0.000   0.000  -0.005   0.000   1.909   0.000   0.000   0.006   0.000  -0.028  -0.019  -0.002   0.000   0.007   0.000   0.000
 -0.030   0.000   0.000   0.000   0.000   0.014   0.000   0.000   0.000   0.000   0.000   0.000   0.000   0.000   0.000   0.000
  0.000  -0.032   0.000   0.000   0.000   0.000   0.013   0.000   0.000   0.000   0.000   0.000  -0.013   0.000   0.000   0.001
  0.000   0.000  -0.006   0.000   0.006   0.000   0.000   0.015   0.000  -0.002   0.026  -0.001   0.000  -0.012   0.000   0.000
  0.000   0.000   0.000  -0.022   0.000   0.000   0.000   0.000   0.014   0.000   0.000   0.000   0.000   0.000   0.004   0.000
  0.000   0.000   0.006   0.000  -0.028   0.000   0.000  -0.002   0.000   0.012   0.002   0.000   0.000   0.010   0.000   0.000
  0.000   0.000   0.031   0.000  -0.019   0.000   0.000   0.026   0.000   0.002   1.705  -0.143   0.000  -0.015   0.000   0.000
  0.000   0.000  -0.005   0.000  -0.002   0.000   0.000  -0.001   0.000   0.000  -0.143   0.019   0.000   0.005   0.000   0.000
  0.000   0.004   0.000   0.000   0.000   0.000  -0.013   0.000   0.000   0.000   0.000   0.000   0.223   0.000   0.000  -0.013
  0.000   0.000  -0.032   0.000   0.007   0.000   0.000  -0.012   0.000   0.010  -0.015   0.005   0.000   0.283   0.000   0.000
  0.000   0.000   0.000   0.023   0.000   0.000   0.000   0.000   0.004   0.000   0.000   0.000   0.000   0.000   0.225   0.000
  0.000  -0.006   0.000   0.000   0.000   0.000   0.001   0.000   0.000   0.000   0.000   0.000  -0.013   0.000   0.000   0.001
  0.000   0.000  -0.010   0.000  -0.001   0.000   0.000   0.000   0.000   0.000   0.000   0.000   0.000  -0.015   0.000   0.000
  0.000   0.000   0.000  -0.009   0.000   0.000   0.000   0.000   0.000   0.000   0.000   0.000   0.000   0.000  -0.013   0.000


------------------------ aborting loop because EDIFF is reached ----------------------------------------


    CHARGE:  cpu time    1.13: real time    1.13
    FORLOC:  cpu time    0.01: real time    0.01
    FORNL :  cpu time   10.72: real time   10.75
    STRESS:  cpu time   31.11: real time   31.21
    FORCOR:  cpu time    0.07: real time    0.07
    FORHAR:  cpu time    0.02: real time    0.03
    MIXING:  cpu time    0.01: real time    0.00

  FORCE on cell =-STRESS in cart. coord.  units (eV):
  Direction    XX          YY          ZZ          XY          YZ          ZX
  --------------------------------------------------------------------------------------
  Alpha Z   631.47566   631.47566   631.47566
  Ewald   -4218.19308 -4246.46827 -5943.34390     0.00000     0.00000     0.00000
  Hartree  3065.73135  2960.51819  1409.48246     0.00081     0.00046     0.00064
  E(xc)   -1025.39397 -1025.34142 -1025.89563     0.00887     0.00691     0.01550
  Local   -1154.10548 -1015.93934  2233.13070     0.03966     0.05481    -0.01378
  n-local  -184.89212  -177.85739  -176.78539     0.87282    -1.02133     3.21643
  augment  1419.90944  1417.86172  1416.35321    -0.02178    -0.03154    -0.00487
  Kinetic  1457.49305  1458.46305  1457.67269     3.29887    -1.66592     4.21358
  Fock        0.00000     0.00000     0.00000     0.00000     0.00000     0.00000
  -------------------------------------------------------------------------------------
  Total      -7.97514     2.71220     2.08981     0.00000     0.00000     0.00000
  in kB     -43.84382    14.91048    11.48886     0.00000     0.00000     0.00000
  external pressure =       -5.81 kB  Pullay stress =        0.00 kB


 VOLUME and BASIS-vectors are now :
 -----------------------------------------------------------------------------
  energy-cutoff  :      295.45
  volume of cell :      291.43
      direct lattice vectors                 reciprocal lattice vectors
     4.229485823  7.013570019  0.000000000     0.118217680  0.071290370 -0.101785535
     0.000000000  7.013570019  4.912289366    -0.118217680  0.071290370  0.101785535
     4.229485823  0.000000000  4.912289366     0.118217680 -0.071290370  0.101785535

  length of vectors
     8.190159628  8.562753718  6.482216993     0.171516855  0.171516855  0.171516855


 FORCES acting on ions
    electron-ion (+dipol)            ewald-force                    non-local-force                 convergence-correction
 -----------------------------------------------------------------------------------------------
   0.221E-02 -.531E-03 0.445E+03   -.629E-11 -.286E-11 -.442E+03   -.555E-16 0.000E+00 -.273E+01   0.554E-05 -.103E-05 0.376E-03
   0.202E-02 -.121E-02 -.198E+03   0.757E-11 0.512E-11 0.196E+03   0.000E+00 0.000E+00 0.182E+01   0.329E-05 -.339E-05 -.254E-02
   0.610E-02 -.288E-02 0.109E+02   0.689E-11 0.489E-11 -.116E+02   0.000E+00 -.867E-18 0.268E+00   -.579E-05 -.399E-07 0.701E-04
   0.785E-02 -.323E-02 0.234E+03   0.431E-11 -.583E-11 -.231E+03   0.000E+00 0.000E+00 -.218E+01   0.219E-05 -.292E-05 -.545E-03
   0.612E-02 -.468E-02 0.234E+03   -.146E-11 0.273E-11 -.231E+03   0.278E-16 0.000E+00 -.218E+01   -.283E-05 0.569E-05 -.528E-03
   0.428E-02 0.348E-03 -.221E+03   -.139E-11 0.370E-11 0.219E+03   0.000E+00 0.111E-15 0.177E+01   0.420E-05 -.902E-06 -.155E-02
   0.425E-02 -.349E-02 -.221E+03   0.498E-11 -.753E-11 0.219E+03   0.000E+00 -.111E-15 0.177E+01   -.326E-05 0.433E-05 -.156E-02
   0.450E-02 0.158E+03 -.200E+02   -.354E-11 -.158E+03 0.199E+02   0.000E+00 -.452E+00 0.110E+00   0.439E-05 0.142E-02 -.420E-03
   -.233E-02 -.158E+03 -.200E+02   0.189E-11 0.158E+03 0.199E+02   0.000E+00 0.452E+00 0.110E+00   -.112E-04 -.142E-02 -.422E-03
   -.236E-02 0.396E+02 -.157E+03   -.366E-11 -.389E+02 0.156E+03   0.000E+00 -.146E+01 -.100E+00   -.932E-05 -.628E-03 0.174E-02
   -.813E-02 -.396E+02 -.157E+03   -.425E-11 0.389E+02 0.156E+03   0.000E+00 0.146E+01 -.100E+00   0.104E-04 0.627E-03 0.174E-02
   -.995E+02 0.718E+02 0.260E+02   0.994E+02 -.715E+02 -.255E+02   0.171E+00 0.161E+00 -.159E+00   -.519E-03 0.125E-02 0.990E-04
   0.996E+02 -.718E+02 0.260E+02   -.994E+02 0.715E+02 -.255E+02   -.171E+00 -.161E+00 -.159E+00   0.523E-03 -.125E-02 0.100E-03
   0.995E+02 0.718E+02 0.260E+02   -.994E+02 -.715E+02 -.255E+02   -.171E+00 0.161E+00 -.159E+00   0.518E-03 0.126E-02 0.106E-03
   -.995E+02 -.718E+02 0.260E+02   0.994E+02 0.715E+02 -.255E+02   0.171E+00 -.161E+00 -.159E+00   -.521E-03 -.126E-02 0.105E-03
   -.394E-03 -.651E-03 -.745E+02   -.147E-11 -.668E-12 0.738E+02   0.000E+00 0.000E+00 0.817E+00   -.693E-06 0.230E-06 0.176E-04
   0.297E-03 0.664E+02 0.298E+02   0.626E-12 -.650E+02 -.294E+02   0.000E+00 -.173E+01 -.379E+00   0.755E-06 -.889E-04 0.174E-03
   0.670E-03 -.664E+02 0.298E+02   -.403E-12 0.650E+02 -.294E+02   0.000E+00 0.173E+01 -.379E+00   0.288E-07 0.892E-04 0.175E-03
   0.567E+02 0.495E+02 -.449E+01   -.558E+02 -.483E+02 0.414E+01   -.733E+00 -.153E+01 0.519E+00   -.277E-03 0.112E-03 0.719E-04
   -.567E+02 -.495E+02 -.449E+01   0.558E+02 0.483E+02 0.414E+01   0.733E+00 0.153E+01 0.519E+00   0.276E-03 -.113E-03 0.700E-04
   -.567E+02 0.495E+02 -.448E+01   0.558E+02 -.483E+02 0.414E+01   0.733E+00 -.153E+01 0.519E+00   0.276E-03 0.112E-03 0.719E-04
   0.567E+02 -.495E+02 -.449E+01   -.558E+02 0.483E+02 0.414E+01   -.733E+00 0.153E+01 0.519E+00   -.276E-03 -.112E-03 0.733E-04
 -----------------------------------------------------------------------------------------------
   0.265E-01 -.130E-01 -.806E-01   0.149E-12 0.163E-12 -.835E-13   0.000E+00 0.444E-15 0.690E-01   -.663E-06 0.232E-06 -.257E-02
 
 
 POSITION                                       TOTAL-FORCE (eV/Angst)
 -----------------------------------------------------------------------------------
      4.22949      7.01357      2.47473         0.000000      0.000000     -0.202047
      4.22949      7.01357      5.06760         0.000000      0.000000     -0.158097
      4.22949      7.01357      7.59704         0.000000      0.000000     -0.470447
      2.11474      3.50679      2.70053         0.000000      0.000000     -0.023504
      6.34423     10.52036      7.61282         0.000000      0.000000     -0.023504
      6.34423     10.52036      5.08750         0.000000      0.000000      0.095443
      2.11474      3.50679      0.17521         0.000000      0.000000      0.095443
      4.22949      2.37566      3.67252         0.000000     -0.169861      0.049044
      4.22949     11.65148      3.67252         0.000000      0.169861      0.049044
      4.22949      9.56238      5.01330         0.000000     -0.735205     -0.783424
      4.22949      4.46476      5.01330         0.000000      0.735205     -0.783424
      6.12743      8.21313      3.73061         0.056918      0.448205      0.333930
      2.33155      5.81401      3.73061        -0.056918     -0.448205      0.333930
      2.33155      8.21313      3.73061        -0.056918      0.448205      0.333930
      6.12743      5.81401      3.73061         0.056918     -0.448205      0.333930
      0.00000      0.00000      0.08814         0.000000      0.000000      0.142290
      0.00000      2.61677      1.82176         0.000000     -0.278107     -0.005389
      4.22949      4.39680      1.82176         0.000000      0.278107     -0.005389
      2.42456      8.38758      6.27279         0.154512     -0.342596      0.172061
      6.03441      5.63956      6.27279        -0.154512      0.342596      0.172061
      6.03441      8.38758      6.27279        -0.154512     -0.342596      0.172061
      2.42456      5.63956      6.27279         0.154512      0.342596      0.172061
 -----------------------------------------------------------------------------------
    total drift:                                0.026479     -0.012971     -0.014250


--------------------------------------------------------------------------------------------------------



  FREE ENERGIE OF THE ION-ELECTRON SYSTEM (eV)
  ---------------------------------------------------
  free  energy   TOTEN  =       -83.489610 eV

  energy  without entropy=      -83.499267  energy(sigma->0) =      -83.492829
 
 d Force = 0.9020719E-01[-0.282E-01, 0.209E+00]  d Energy = 0.1956988E-01 0.706E-01
 d Force =-0.5812321E+02[-0.633E+02,-0.529E+02]  d Ewald  =-0.8096996E+02 0.228E+02


--------------------------------------------------------------------------------------------------------


    POTLOK:  cpu time    0.07: real time    0.07


--------------------------------------------------------------------------------------------------------




--------------------------------------------------------------------------------------------------------


     LOOP+:  cpu time  470.68: real time  472.24
    4ORBIT:  cpu time    0.00: real time    0.00

 total amount of memory used by VASP on root node   151192. kBytes
========================================================================

   base      :      30000. kBytes
   nonlr-proj:       6567. kBytes
   fftplans  :       2672. kBytes
   grid      :       5640. kBytes
   one-center:        342. kBytes
   wavefun   :     105971. kBytes
 
  
  
 General timing and accounting informations for this job:
 ========================================================
  
                  Total CPU time used (sec):     4419.090
                            User time (sec):     4415.760
                          System time (sec):        3.330
                         Elapsed time (sec):     4439.040
  
                   Maximum memory used (kb):      370320.
                   Average memory used (kb):           0.
  
                          Minor page faults:       127900
                          Major page faults:          488
                 Voluntary context switches:         2829
