 vasp.5.2.12 11Nov11 complex                                                    
  
 executed on             LinuxIFC date 2014.05.30  10:18:47
 running on    4 nodes
 distr:  one band on    1 nodes,    4 groups


--------------------------------------------------------------------------------------------------------


 INCAR:
 POTCAR:    PAW_PBE Cu 22Jun2005                  
 POTCAR:    PAW_PBE Al 04Jan2001                  
 POTCAR:    PAW_PBE Cu 22Jun2005                  
   VRHFIN =Cu: d10 p1                                                           
   LEXCH  = PE                                                                  
   EATOM  =  1390.9808 eV,  102.2342 Ry                                         
                                                                                
   TITEL  = PAW_PBE Cu 22Jun2005                                                
   LULTRA =        F    use ultrasoft PP ?                                      
   IUNSCR =        1    unscreen: 0-lin 1-nonlin 2-no                           
   RPACOR =    2.000    partial core radius                                     
   POMASS =   63.546; ZVAL   =   11.000    mass and valenz                      
   RCORE  =    2.300    outmost cutoff radius                                   
   RWIGS  =    2.200; RWIGS  =    1.164    wigner-seitz radius (au A)           
   ENMAX  =  295.446; ENMIN  =  221.585 eV                                      
   ICORE  =        3    local potential                                         
   LCOR   =        T    correct aug charges                                     
   LPAW   =        T    paw PP                                                  
   EAUG   =  586.980                                                            
   DEXC   =    0.000                                                            
   RMAX   =    2.344    core radius for proj-oper                               
   RAUG   =    1.300    factor for augmentation sphere                          
   RDEP   =    2.302    radius for radial grids                                 
   RDEPT  =    1.771    core radius for aug-charge                              
                                                                                
   Atomic configuration                                                         
    9 entries                                                                   
     n  l   j            E        occ.                                          
     1  0  0.50     -8850.2468   2.0000                                         
     2  0  0.50     -1062.3498   2.0000                                         
     2  1  1.50      -916.8226   6.0000                                         
     3  0  0.50      -114.6929   2.0000                                         
     3  1  1.50       -72.1325   6.0000                                         
     3  2  2.50        -5.0394  10.0000                                         
     4  0  0.50        -4.6097   1.0000                                         
     4  1  0.50        -4.0817   0.0000                                         
     4  3  2.50        -1.3606   0.0000                                         
   Description                                                                  
     l       E           TYP  RCUT    TYP  RCUT                                 
     2     -5.0393973     23  2.200                                             
     2     10.8846608     23  2.200                                             
     0     -4.6097109     23  2.200                                             
     0      8.2520465     23  2.200                                             
     1     -2.7211652     23  2.200                                             
     1     21.7055443     23  2.200                                             
     3      2.7211652     23  2.300                                             
  local pseudopotential read in
  partial core-charges read in
  partial kinetic energy density read in
  atomic valenz-charges read in
  non local Contribution for L=           2  read in
    real space projection operators read in
  non local Contribution for L=           2  read in
    real space projection operators read in
  non local Contribution for L=           0  read in
    real space projection operators read in
  non local Contribution for L=           0  read in
    real space projection operators read in
  non local Contribution for L=           1  read in
    real space projection operators read in
  non local Contribution for L=           1  read in
    real space projection operators read in
    PAW grid and wavefunctions read in
 
   number of l-projection  operators is LMAX  =           6
   number of lm-projection operators is LMMAX =          18
 
 POTCAR:    PAW_PBE Al 04Jan2001                  
   VRHFIN =Al: s2p1                                                             
   LEXCH  = PE                                                                  
   EATOM  =    53.5387 eV,    3.9350 Ry                                         
                                                                                
   TITEL  = PAW_PBE Al 04Jan2001                                                
   LULTRA =        F    use ultrasoft PP ?                                      
   IUNSCR =        1    unscreen: 0-lin 1-nonlin 2-no                           
   RPACOR =    1.500    partial core radius                                     
   POMASS =   26.981; ZVAL   =    3.000    mass and valenz                      
   RCORE  =    1.900    outmost cutoff radius                                   
   RWIGS  =    2.650; RWIGS  =    1.402    wigner-seitz radius (au A)           
   ENMAX  =  240.300; ENMIN  =  180.225 eV                                      
   ICORE  =        2    local potential                                         
   LCOR   =        T    correct aug charges                                     
   LPAW   =        T    paw PP                                                  
   EAUG   =  291.052                                                            
   DEXC   =    0.000                                                            
   RMAX   =    1.939    core radius for proj-oper                               
   RAUG   =    1.300    factor for augmentation sphere                          
   RDEP   =    1.966    radius for radial grids                                 
   RDEPT  =    1.856    core radius for aug-charge                              
                                                                                
   Atomic configuration                                                         
    6 entries                                                                   
     n  l   j            E        occ.                                          
     1  0  0.50     -1511.1048   2.0000                                         
     2  0  0.50      -108.1629   2.0000                                         
     2  1  1.50       -69.6402   6.0000                                         
     3  0  0.50        -7.7528   2.0000                                         
     3  1  1.50        -2.7121   1.0000                                         
     3  2  2.50        -2.7212   0.0000                                         
   Description                                                                  
     l       E           TYP  RCUT    TYP  RCUT                                 
     0     -7.7528455     23  1.900                                             
     0     -3.3096929     23  1.900                                             
     1     -2.7120682     23  1.900                                             
     1     13.6058260     23  1.900                                             
     2     -2.7211652      7  1.900                                             
  local pseudopotential read in
  partial core-charges read in
  partial kinetic energy density read in
  atomic valenz-charges read in
  non local Contribution for L=           0  read in
    real space projection operators read in
  non local Contribution for L=           0  read in
    real space projection operators read in
  non local Contribution for L=           1  read in
    real space projection operators read in
  non local Contribution for L=           1  read in
    real space projection operators read in
    PAW grid and wavefunctions read in
 
   number of l-projection  operators is LMAX  =           4
   number of lm-projection operators is LMMAX =           8
 
 Optimization of the real space projectors (new method)

 maximal supplied QI-value         = 16.25
 optimisation between [QCUT,QGAM] = [  8.78, 17.55] = [ 21.57, 86.27] Ry 
 Optimized for a Real-space Cutoff    1.61 Angstroem

   l    n(q)    QCUT    max X(q) W(low)/X(q) W(high)/X(q)  e(spline) 
   2      7     8.776     4.610    0.19E-03    0.29E-03    0.29E-06
   2      7     8.776     8.522    0.28E-03    0.56E-03    0.43E-06
   0      8     8.776    51.609    0.51E-04    0.19E-03    0.66E-07
   0      8     8.776    27.747    0.45E-04    0.18E-03    0.64E-07
   1      8     8.776    20.408    0.41E-03    0.31E-03    0.23E-06
   1      8     8.776    13.425    0.36E-03    0.28E-03    0.21E-06
 Optimization of the real space projectors (new method)

 maximal supplied QI-value         = 19.84
 optimisation between [QCUT,QGAM] = [  8.73, 17.46] = [ 21.34, 85.38] Ry 
 Optimized for a Real-space Cutoff    1.43 Angstroem

   l    n(q)    QCUT    max X(q) W(low)/X(q) W(high)/X(q)  e(spline) 
   0      7     8.731   176.870    0.24E-03    0.42E-04    0.12E-06
   0      7     8.731   105.762    0.23E-03    0.40E-04    0.11E-06
   1      7     8.731    55.370    0.23E-03    0.67E-03    0.12E-06
   1      7     8.731    20.208    0.21E-03    0.61E-03    0.12E-06
  PAW_PBE Cu 22Jun2005                  :
 energy of atom  1       EATOM=-1390.9808
 kinetic energy error for atom=    0.0452 (will be added to EATOM!!)
  PAW_PBE Al 04Jan2001                  :
 energy of atom  2       EATOM=  -53.5387
 kinetic energy error for atom=    0.0012 (will be added to EATOM!!)
 
 
 POSCAR: XYZ: Cu4Al8                             
  positions in direct lattice
  velocities in cartesian coordinates
 exchange correlation table for  LEXCH =        8
   RHO(1)=    0.500       N(1)  =     2000
   RHO(2)=  100.500       N(2)  =     4000
 


--------------------------------------------------------------------------------------------------------


 ion  position               nearest neighbor table
   1  0.000  0.000  0.000-   5 2.50   6 2.50   7 2.50   8 2.50   9 2.50  10 2.50  11 2.50  12 2.50

   2  0.000  0.500  0.500-   5 2.50   6 2.50   7 2.50   8 2.50   9 2.50  10 2.50  11 2.50  12 2.50

   3  0.500  0.000  0.500-   5 2.50   6 2.50   7 2.50   8 2.50   9 2.50  10 2.50  11 2.50  12 2.50

   4  0.500  0.500  0.000-   5 2.50   6 2.50   7 2.50   8 2.50   9 2.50  10 2.50  11 2.50  12 2.50

   5  0.250  0.250  0.250-   1 2.50   2 2.50   3 2.50   4 2.50   6 2.88   8 2.88  10 2.88  10 2.88
                             8 2.88   6 2.88
   6  0.750  0.250  0.250-   1 2.50   2 2.50   3 2.50   4 2.50   5 2.88   7 2.88  11 2.88  11 2.88
                             7 2.88   5 2.88
   7  0.750  0.750  0.250-   1 2.50   2 2.50   3 2.50   4 2.50   6 2.88   8 2.88  12 2.88  12 2.88
                             6 2.88   8 2.88
   8  0.250  0.750  0.250-   1 2.50   2 2.50   3 2.50   4 2.50   5 2.88   7 2.88   9 2.88   9 2.88
                             5 2.88   7 2.88
   9  0.250  0.750  0.750-   1 2.50   2 2.50   3 2.50   4 2.50   8 2.88  10 2.88  12 2.88   8 2.88
                            10 2.88  12 2.88
  10  0.250  0.250  0.750-   1 2.50   2 2.50   3 2.50   4 2.50   5 2.88   9 2.88  11 2.88   5 2.88
                             9 2.88  11 2.88
  11  0.750  0.250  0.750-   1 2.50   2 2.50   3 2.50   4 2.50   6 2.88  10 2.88  12 2.88   6 2.88
                            12 2.88  10 2.88
  12  0.750  0.750  0.750-   1 2.50   2 2.50   3 2.50   4 2.50   7 2.88   9 2.88  11 2.88   7 2.88
                            11 2.88   9 2.88
 
  LATTYP: Found a simple cubic cell.
 ALAT       =     5.7636584797
  
  Lattice vectors:
  
 A1 = (   5.7636584797,   0.0000000000,   0.0000000000)
 A2 = (   0.0000000000,   5.7636584797,   0.0000000000)
 A3 = (   0.0000000000,   0.0000000000,   5.7636584797)
 Subroutine PRICEL returns following result:
 
  LATTYP: Found a face centered cubic cell.
 ALAT       =     5.7636584797
  
  Lattice vectors:
  
 A1 = (   2.8818292399,   2.8818292399,   0.0000000000)
 A2 = (   2.8818292399,   0.0000000000,  -2.8818292399)
 A3 = (   0.0000000000,   2.8818292399,  -2.8818292399)
 
   4 primitive cells build up your supercell.
 

Analysis of symmetry for initial positions (statically):

 Routine SETGRP: Setting up the symmetry group for a 
 simple cubic supercell.


 Subroutine GETGRP returns: Found 48 space group operations
 (whereof 48 operations were pure point group operations)
 out of a pool of 48 trial point group operations.


The static configuration has the point symmetry O_h .

Analysis of symmetry for dynamics (positions and initial velocities):

 Subroutine DYNSYM returns: Found 48 space group operations
 (whereof 48 operations were pure point group operations)
 out of a pool of 48 trial space group operations
 (whereof 48 operations were pure point group operations)
 and found also     4 'primitive' translations


The dynamic configuration has the point symmetry O_h .
 
 
 KPOINTS: Automatic mesh                          

Automatic generation of k-mesh.
 
 Subroutine IBZKPT returns following result:
 ===========================================
 
 Found     20 irreducible k-points:
 
 Following reciprocal coordinates:
            Coordinates               Weight
  0.000000  0.000000  0.000000      1.000000
  0.142857  0.000000  0.000000      6.000000
  0.285714  0.000000  0.000000      6.000000
  0.428571  0.000000  0.000000      6.000000
  0.142857  0.142857  0.000000     12.000000
  0.285714  0.142857  0.000000     24.000000
  0.428571  0.142857  0.000000     24.000000
  0.285714  0.285714  0.000000     12.000000
  0.428571  0.285714  0.000000     24.000000
  0.428571  0.428571  0.000000     12.000000
  0.142857  0.142857  0.142857      8.000000
  0.285714  0.142857  0.142857     24.000000
  0.428571  0.142857  0.142857     24.000000
  0.285714  0.285714  0.142857     24.000000
  0.428571  0.285714  0.142857     48.000000
  0.428571  0.428571  0.142857     24.000000
  0.285714  0.285714  0.285714      8.000000
  0.428571  0.285714  0.285714     24.000000
  0.428571  0.428571  0.285714     24.000000
  0.428571  0.428571  0.428571      8.000000
 
 Following cartesian coordinates:
            Coordinates               Weight
  0.000000  0.000000  0.000000      1.000000
  0.024786  0.000000  0.000000      6.000000
  0.049572  0.000000  0.000000      6.000000
  0.074358  0.000000  0.000000      6.000000
  0.024786  0.024786  0.000000     12.000000
  0.049572  0.024786  0.000000     24.000000
  0.074358  0.024786  0.000000     24.000000
  0.049572  0.049572  0.000000     12.000000
  0.074358  0.049572  0.000000     24.000000
  0.074358  0.074358  0.000000     12.000000
  0.024786  0.024786  0.024786      8.000000
  0.049572  0.024786  0.024786     24.000000
  0.074358  0.024786  0.024786     24.000000
  0.049572  0.049572  0.024786     24.000000
  0.074358  0.049572  0.024786     48.000000
  0.074358  0.074358  0.024786     24.000000
  0.049572  0.049572  0.049572      8.000000
  0.074358  0.049572  0.049572     24.000000
  0.074358  0.074358  0.049572     24.000000
  0.074358  0.074358  0.074358      8.000000
 


--------------------------------------------------------------------------------------------------------




 Dimension of arrays:
   k-points           NKPTS =     20   k-points in BZ     NKDIM =     20   number of bands    NBANDS=     44
   number of dos      NEDOS =    301   number of ions     NIONS =     12
   non local maximal  LDIM  =      6   non local SUM 2l+1 LMDIM =     18
   total plane-waves  NPLWV =  13824
   max r-space proj   IRMAX =   1303   max aug-charges    IRDMAX=   3009
   dimension x,y,z NGX =    24 NGY =   24 NGZ =   24
   dimension x,y,z NGXF=    48 NGYF=   48 NGZF=   48
   support grid    NGXF=    48 NGYF=   48 NGZF=   48
   ions per type =               4   8
 NGX,Y,Z   is equivalent  to a cutoff of   6.92,  6.92,  6.92 a.u.
 NGXF,Y,Z  is equivalent  to a cutoff of  13.85, 13.85, 13.85 a.u.


 I would recommend the setting:
   dimension x,y,z NGX =    24 NGY =   24 NGZ =   24
 SYSTEM =  Al8Cu4                                  
 POSCAR =  XYZ: Cu4Al8                             

 Startparameter for this run:
   NWRITE =      2    write-flag & timer
   PREC   = normal    normal or accurate (medium, high low for compatibility)
   ISTART =      0    job   : 0-new  1-cont  2-samecut
   ICHARG =      2    charge: 1-file 2-atom 10-const
   ISPIN  =      1    spin polarized calculation?
   LNONCOLLINEAR =      F non collinear calculations
   LSORBIT =      F    spin-orbit coupling
   INIWAV =      1    electr: 0-lowe 1-rand  2-diag
   LASPH  =      F    aspherical Exc in radial PAW
   METAGGA=      F    non-selfconsistent MetaGGA calc.

 Electronic Relaxation 1
   ENCUT  =  295.4 eV  21.71 Ry    4.66 a.u.   8.08  8.08  8.08*2*pi/ulx,y,z
   ENINI  =  295.4     initial cutoff
   ENAUG  =  587.0 eV  augmentation charge cutoff
   NELM   =     40;   NELMIN=  2; NELMDL=  0     # of ELM steps 
   EDIFF  = 0.1E-05   stopping-criterion for ELM
   LREAL  =      T    real-space projection
   NLSPLINE    = F    spline interpolate recip. space projectors
   LCOMPAT=      F    compatible to vasp.4.4
   GGA_COMPAT  = T    GGA compatible to vasp.4.4-vasp.4.6
   LMAXPAW     = -100 max onsite density
   LMAXMIX     =    2 max onsite mixed and CHGCAR
   VOSKOWN=      0    Vosko Wilk Nusair interpolation
   ROPT   =   -0.00050  -0.00050
 Ionic relaxation
   EDIFFG = 0.1E-04   stopping-criterion for IOM
   NSW    =     10    number of steps for IOM
   NBLOCK =      1;   KBLOCK =     10    inner block; outer block 
   IBRION =      2    ionic relax: 0-MD 1-quasi-New 2-CG
   NFREE  =      1    steps in history (QN), initial steepest desc. (CG)
   ISIF   =      3    stress and relaxation
   IWAVPR =     11    prediction:  0-non 1-charg 2-wave 3-comb
   ISYM   =      2    0-nonsym 1-usesym 2-fastsym
   LCORR  =      T    Harris-Foulkes like correction to forces

   POTIM  = 0.2500    time-step for ionic-motion
   TEIN   =    0.0    initial temperature
   TEBEG  =    0.0;   TEEND  =   0.0 temperature during run
   SMASS  =  -3.00    Nose mass-parameter (am)
   estimated Nose-frequenzy (Omega)   =  0.10E-29 period in steps =****** mass=  -0.759E-27a.u.
   SCALEE = 1.0000    scale energy and forces
   NPACO  =    256;   APACO  = 16.0  distance and # of slots for P.C.
   PSTRESS=    0.0 pullay stress

  Mass of Ions in am
   POMASS =  63.55 26.98
  Ionic Valenz
   ZVAL   =  11.00  3.00
  Atomic Wigner-Seitz radii
   RWIGS  =  -1.00 -1.00
  virtual crystal weights 
   VCA    =   1.00  1.00
   NELECT =      68.0000    total number of electrons
   NUPDOWN=      -1.0000    fix difference up-down

 DOS related values:
   EMIN   =  10.00;   EMAX   =-10.00  energy-range for DOS
   EFERMI =   0.00
   ISMEAR =     1;   SIGMA  =   0.20  broadening in eV -4-tet -1-fermi 0-gaus

 Electronic relaxation 2 (details)
   IALGO  =     68    algorithm
   LDIAG  =      T    sub-space diagonalisation (order eigenvalues)
   LSUBROT=      T    optimize rotation matrix (better conditioning)
   TURBO    =      0    0=normal 1=particle mesh
   IRESTART =      0    0=no restart 2=restart with 2 vectors
   NREBOOT  =      0    no. of reboots
   NMIN     =      0    reboot dimension
   EREF     =   0.00    reference energy to select bands
   IMIX   =      4    mixing-type and parameters
     AMIX     =   0.40;   BMIX     =  1.00
     AMIX_MAG =   1.60;   BMIX_MAG =  1.00
     AMIN     =   0.10
     WC   =   100.;   INIMIX=   1;  MIXPRE=   1

 Intra band minimization:
   WEIMIN = 0.0010     energy-eigenvalue tresh-hold
   EBREAK =  0.57E-08  absolut break condition
   DEPER  =   0.30     relativ break condition  

   TIME   =   0.40     timestep for ELM

  volume/ion in A,a.u.               =      15.96       107.67
  Fermi-wavevector in a.u.,A,eV,Ry     =   1.159346  2.190845 18.287347  1.344082
  Thomas-Fermi vector in A             =   2.295939
 
 Write flags
   LWAVE  =      F    write WAVECAR
   LCHARG =      F    write CHGCAR
   LVTOT  =      F    write LOCPOT, total local potential
   LVHAR  =      F    write LOCPOT, Hartree potential only
   LELF   =      F    write electronic localiz. function (ELF)
   LORBIT =      0    0 simple, 1 ext, 2 COOP (PROOUT)


 Dipole corrections
   LMONO  =      F    monopole corrections only (constant potential shift)
   LDIPOL =      F    correct potential (dipole corrections)
   IDIPOL =      0    1-x, 2-y, 3-z, 4-all directions 
   EPSILON=  1.0000000 bulk dielectric constant

 Exchange correlation treatment:
   GGA     =    --    GGA type
   LEXCH   =     8    internal setting for exchange type
   VOSKOWN=      0    Vosko Wilk Nusair interpolation
   LHFCALC =     F    Hartree Fock is set to
   LHFONE  =     F    Hartree Fock one center treatment
   AEXX    =    0.0000 exact exchange contribution

 Linear response parameters
   LEPSILON=     F    determine dielectric tensor
   LRPA    =     F    only Hartree local field effects (RPA)
   LNABLA  =     F    use nabla operator in PAW spheres
   LVEL    =     F    velocity operator in full k-point grid
   LINTERFAST=   F  fast interpolation
   KINTER  =     0    interpolate to denser k-point grid
   CSHIFT  =0.1000    complex shift for real part using Kramers Kronig
   OMEGAMAX=  -1.0    maximum frequency
   RTIME   =    0.100 relaxation time in fs

 Orbital magnetization related:
   ORBITALMAG=     F  switch on orbital magnetization
   LCHIMAG   =     F  perturbation theory with respect to B field
   DQ        =  0.001000  dq finite difference perturbation B field



--------------------------------------------------------------------------------------------------------


 conjugate gradient relaxation of ions
 charge density and potential will be updated during run
 non-spin polarized calculation
 RMM-DIIS sequential band-by-band and
  variant of blocked Davidson during initial phase
 perform sub-space diagonalisation
    before iterative eigenvector-optimisation
 modified Broyden-mixing scheme, WC =      100.0
 initial mixing is a Kerker type mixing with AMIX =  0.4000 and BMIX =      1.0000
 Hartree-type preconditioning will be used
 using additional bands           10
 real space projection scheme for non local part
 use partial core corrections
 calculate Harris-corrections to forces 
   (improved forces if not selfconsistent)
 use gradient corrections 
 use of overlap-Matrix (Vanderbilt PP)
 Methfessel and Paxton  Order N= 1 SIGMA  =   0.20


--------------------------------------------------------------------------------------------------------


  energy-cutoff  :      295.45
  volume of cell :      191.47
      direct lattice vectors                 reciprocal lattice vectors
     5.763658480  0.000000000  0.000000000     0.173500912  0.000000000  0.000000000
     0.000000000  5.763658480  0.000000000     0.000000000  0.173500912  0.000000000
     0.000000000  0.000000000  5.763658480     0.000000000  0.000000000  0.173500912

  length of vectors
     5.763658480  5.763658480  5.763658480     0.173500912  0.173500912  0.173500912


 
 k-points in units of 2pi/SCALE and weight: Automatic mesh                          
   0.00000000  0.00000000  0.00000000       0.003
   0.02478584  0.00000000  0.00000000       0.017
   0.04957169  0.00000000  0.00000000       0.017
   0.07435753  0.00000000  0.00000000       0.017
   0.02478584  0.02478584  0.00000000       0.035
   0.04957169  0.02478584  0.00000000       0.070
   0.07435753  0.02478584  0.00000000       0.070
   0.04957169  0.04957169  0.00000000       0.035
   0.07435753  0.04957169  0.00000000       0.070
   0.07435753  0.07435753  0.00000000       0.035
   0.02478584  0.02478584  0.02478584       0.023
   0.04957169  0.02478584  0.02478584       0.070
   0.07435753  0.02478584  0.02478584       0.070
   0.04957169  0.04957169  0.02478584       0.070
   0.07435753  0.04957169  0.02478584       0.140
   0.07435753  0.07435753  0.02478584       0.070
   0.04957169  0.04957169  0.04957169       0.023
   0.07435753  0.04957169  0.04957169       0.070
   0.07435753  0.07435753  0.04957169       0.070
   0.07435753  0.07435753  0.07435753       0.023
 
 k-points in reciprocal lattice and weights: Automatic mesh                          
   0.00000000  0.00000000  0.00000000       0.003
   0.14285714  0.00000000  0.00000000       0.017
   0.28571429  0.00000000  0.00000000       0.017
   0.42857143  0.00000000  0.00000000       0.017
   0.14285714  0.14285714  0.00000000       0.035
   0.28571429  0.14285714  0.00000000       0.070
   0.42857143  0.14285714  0.00000000       0.070
   0.28571429  0.28571429  0.00000000       0.035
   0.42857143  0.28571429  0.00000000       0.070
   0.42857143  0.42857143  0.00000000       0.035
   0.14285714  0.14285714  0.14285714       0.023
   0.28571429  0.14285714  0.14285714       0.070
   0.42857143  0.14285714  0.14285714       0.070
   0.28571429  0.28571429  0.14285714       0.070
   0.42857143  0.28571429  0.14285714       0.140
   0.42857143  0.42857143  0.14285714       0.070
   0.28571429  0.28571429  0.28571429       0.023
   0.42857143  0.28571429  0.28571429       0.070
   0.42857143  0.42857143  0.28571429       0.070
   0.42857143  0.42857143  0.42857143       0.023
 
 position of ions in fractional coordinates (direct lattice) 
   0.00000000  0.00000000  0.00000000
   0.00000000  0.50000000  0.50000000
   0.50000000  0.00000000  0.50000000
   0.50000000  0.50000000  0.00000000
   0.25000000  0.25000000  0.25000000
   0.75000000  0.25000000  0.25000000
   0.75000000  0.75000000  0.25000000
   0.25000000  0.75000000  0.25000000
   0.25000000  0.75000000  0.75000000
   0.25000000  0.25000000  0.75000000
   0.75000000  0.25000000  0.75000000
   0.75000000  0.75000000  0.75000000
 
 position of ions in cartesian coordinates  (Angst):
   0.00000000  0.00000000  0.00000000
   0.00000000  2.88182924  2.88182924
   2.88182924  0.00000000  2.88182924
   2.88182924  2.88182924  0.00000000
   1.44091462  1.44091462  1.44091462
   4.32274386  1.44091462  1.44091462
   4.32274386  4.32274386  1.44091462
   1.44091462  4.32274386  1.44091462
   1.44091462  4.32274386  4.32274386
   1.44091462  1.44091462  4.32274386
   4.32274386  1.44091462  4.32274386
   4.32274386  4.32274386  4.32274386
 


--------------------------------------------------------------------------------------------------------


 k-point  1 :  0.00000.00000.0000  plane waves:    2205
 k-point  2 :  0.14290.00000.0000  plane waves:    2200
 k-point  3 :  0.28570.00000.0000  plane waves:    2208
 k-point  4 :  0.42860.00000.0000  plane waves:    2208
 k-point  5 :  0.14290.14290.0000  plane waves:    2203
 k-point  6 :  0.28570.14290.0000  plane waves:    2212
 k-point  7 :  0.42860.14290.0000  plane waves:    2204
 k-point  8 :  0.28570.28570.0000  plane waves:    2217
 k-point  9 :  0.42860.28570.0000  plane waves:    2199
 k-point 10 :  0.42860.42860.0000  plane waves:    2208
 k-point 11 :  0.14290.14290.1429  plane waves:    2202
 k-point 12 :  0.28570.14290.1429  plane waves:    2198
 k-point 13 :  0.42860.14290.1429  plane waves:    2205
 k-point 14 :  0.28570.28570.1429  plane waves:    2217
 k-point 15 :  0.42860.28570.1429  plane waves:    2205
 k-point 16 :  0.42860.42860.1429  plane waves:    2213
 k-point 17 :  0.28570.28570.2857  plane waves:    2217
 k-point 18 :  0.42860.28570.2857  plane waves:    2213
 k-point 19 :  0.42860.42860.2857  plane waves:    2226
 k-point 20 :  0.42860.42860.4286  plane waves:    2236

 maximum and minimum number of plane-waves per node :      2236     2198

 maximum number of plane-waves:      2236
 maximum index in each direction: 
   IXMAX=    8   IYMAX=    8   IZMAX=    8
   IXMIN=   -8   IYMIN=   -8   IZMIN=   -8

 WARNING: aliasing errors must be expected set NGX to  34 to avoid them
 WARNING: aliasing errors must be expected set NGY to  34 to avoid them
 WARNING: aliasing errors must be expected set NGZ to  34 to avoid them
 aliasing errors are usually negligible using standard VASP settings
 and one can safely disregard these warnings

 serial   3D FFT for wavefunctions
 parallel 3D FFT for charge:
    minimum data exchange during FFTs selected (reduces bandwidth)


 total amount of memory used by VASP on root node    43217. kBytes
========================================================================

   base      :      30000. kBytes
   nonlr-proj:       1501. kBytes
   fftplans  :       1025. kBytes
   grid      :       2156. kBytes
   one-center:        186. kBytes
   wavefun   :       8349. kBytes
 
 Broyden mixing: mesh for mixing (old mesh)
   NGX = 17   NGY = 17   NGZ = 17
  (NGX  = 48   NGY  = 48   NGZ  = 48)
  gives a total of   4913 points

 initial charge density was supplied:
 charge density of overlapping atoms calculated
 number of electron      68.0000000 magnetization 
 keeping initial charge density in first step


--------------------------------------------------------------------------------------------------------


 Maximum index for non-local projection operator         1213
 Maximum index for augmentation-charges          685 (set IRDMAX)


--------------------------------------------------------------------------------------------------------


 First call to EWALD:  gamma=   0.308
 Maximum number of real-space cells 3x 3x 3
 Maximum number of reciprocal cells 3x 3x 3

    FEWALD:  cpu time    0.00: real time    0.00


----------------------------------------- Iteration    1(   1)  ---------------------------------------


    POTLOK:  cpu time    0.01: real time    0.02
    SETDIJ:  cpu time    0.01: real time    0.01
     EDDAV:  cpu time    1.16: real time    1.18
       DOS:  cpu time    0.01: real time    0.00
    --------------------------------------------
      LOOP:  cpu time    1.20: real time    1.21

 eigenvalue-minimisations  :  1760
 total energy-change (2. order) : 0.3729853E+03  (-0.1844624E+04)
 number of electron      68.0000000 magnetization 
 augmentation part       68.0000000 magnetization 

 Free energy of the ion-electron system (eV)
  ---------------------------------------------------
  alpha Z        PSCENC =        91.26717421
  Ewald energy   TEWEN  =     -3811.35586921
  -1/2 Hartree   DENC   =     -2426.75468726
  -exchange  EXHF       =         0.00000000
  -V(xc)+E(xc)   XCENC  =       -26.63865686
  PAW double counting   =      5442.42789652    -5610.15883456
  entropy T*S    EENTRO =        -0.00345502
  eigenvalues    EBANDS =       722.15901695
  atomic energy  EATOM  =      5992.04272498
  ---------------------------------------------------
  free energy    TOTEN  =       372.98530975 eV

  energy without entropy =      372.98876477  energy(sigma->0) =      372.98646142


--------------------------------------------------------------------------------------------------------




----------------------------------------- Iteration    1(   2)  ---------------------------------------


     EDDAV:  cpu time    1.17: real time    1.18
       DOS:  cpu time    0.01: real time    0.00
    --------------------------------------------
      LOOP:  cpu time    1.18: real time    1.19

 eigenvalue-minimisations  :  1768
 total energy-change (2. order) :-0.4002083E+03  (-0.3845531E+03)
 number of electron      68.0000000 magnetization 
 augmentation part       68.0000000 magnetization 

 Free energy of the ion-electron system (eV)
  ---------------------------------------------------
  alpha Z        PSCENC =        91.26717421
  Ewald energy   TEWEN  =     -3811.35586921
  -1/2 Hartree   DENC   =     -2426.75468726
  -exchange  EXHF       =         0.00000000
  -V(xc)+E(xc)   XCENC  =       -26.63865686
  PAW double counting   =      5442.42789652    -5610.15883456
  entropy T*S    EENTRO =        -0.01121613
  eigenvalues    EBANDS =       321.95845230
  atomic energy  EATOM  =      5992.04272498
  ---------------------------------------------------
  free energy    TOTEN  =       -27.22301602 eV

  energy without entropy =      -27.21179988  energy(sigma->0) =      -27.21927731


--------------------------------------------------------------------------------------------------------




----------------------------------------- Iteration    1(   3)  ---------------------------------------


     EDDAV:  cpu time    1.42: real time    1.43
       DOS:  cpu time    0.00: real time    0.00
    --------------------------------------------
      LOOP:  cpu time    1.43: real time    1.43

 eigenvalue-minimisations  :  2224
 total energy-change (2. order) :-0.2804445E+02  (-0.2656688E+02)
 number of electron      68.0000000 magnetization 
 augmentation part       68.0000000 magnetization 

 Free energy of the ion-electron system (eV)
  ---------------------------------------------------
  alpha Z        PSCENC =        91.26717421
  Ewald energy   TEWEN  =     -3811.35586921
  -1/2 Hartree   DENC   =     -2426.75468726
  -exchange  EXHF       =         0.00000000
  -V(xc)+E(xc)   XCENC  =       -26.63865686
  PAW double counting   =      5442.42789652    -5610.15883456
  entropy T*S    EENTRO =        -0.01947289
  eigenvalues    EBANDS =       293.92225895
  atomic energy  EATOM  =      5992.04272498
  ---------------------------------------------------
  free energy    TOTEN  =       -55.26746612 eV

  energy without entropy =      -55.24799323  energy(sigma->0) =      -55.26097516


--------------------------------------------------------------------------------------------------------




----------------------------------------- Iteration    1(   4)  ---------------------------------------


     EDDAV:  cpu time    1.70: real time    1.71
       DOS:  cpu time    0.00: real time    0.00
    --------------------------------------------
      LOOP:  cpu time    1.70: real time    1.71

 eigenvalue-minimisations  :  2768
 total energy-change (2. order) :-0.1015021E+01  (-0.1007813E+01)
 number of electron      68.0000000 magnetization 
 augmentation part       68.0000000 magnetization 

 Free energy of the ion-electron system (eV)
  ---------------------------------------------------
  alpha Z        PSCENC =        91.26717421
  Ewald energy   TEWEN  =     -3811.35586921
  -1/2 Hartree   DENC   =     -2426.75468726
  -exchange  EXHF       =         0.00000000
  -V(xc)+E(xc)   XCENC  =       -26.63865686
  PAW double counting   =      5442.42789652    -5610.15883456
  entropy T*S    EENTRO =        -0.02274252
  eigenvalues    EBANDS =       292.91050776
  atomic energy  EATOM  =      5992.04272498
  ---------------------------------------------------
  free energy    TOTEN  =       -56.28248694 eV

  energy without entropy =      -56.25974442  energy(sigma->0) =      -56.27490610


--------------------------------------------------------------------------------------------------------




----------------------------------------- Iteration    1(   5)  ---------------------------------------


     EDDAV:  cpu time    1.70: real time    1.70
       DOS:  cpu time    0.00: real time    0.00
    CHARGE:  cpu time    0.05: real time    0.06
    MIXING:  cpu time    0.01: real time    0.00
    --------------------------------------------
      LOOP:  cpu time    1.76: real time    1.77

 eigenvalue-minimisations  :  2748
 total energy-change (2. order) :-0.8708396E-02  (-0.8703986E-02)
 number of electron      67.9998735 magnetization 
 augmentation part       22.8428597 magnetization 

 Broyden mixing:
  rms(total) = 0.30217E+01    rms(broyden)= 0.30212E+01
  rms(prec ) = 0.52608E+01
  weight for this iteration     100.00

 Free energy of the ion-electron system (eV)
  ---------------------------------------------------
  alpha Z        PSCENC =        91.26717421
  Ewald energy   TEWEN  =     -3811.35586921
  -1/2 Hartree   DENC   =     -2426.75468726
  -exchange  EXHF       =         0.00000000
  -V(xc)+E(xc)   XCENC  =       -26.63865686
  PAW double counting   =      5442.42789652    -5610.15883456
  entropy T*S    EENTRO =        -0.02274007
  eigenvalues    EBANDS =       292.90179691
  atomic energy  EATOM  =      5992.04272498
  ---------------------------------------------------
  free energy    TOTEN  =       -56.29119533 eV

  energy without entropy =      -56.26845527  energy(sigma->0) =      -56.28361531


--------------------------------------------------------------------------------------------------------




----------------------------------------- Iteration    1(   6)  ---------------------------------------


    POTLOK:  cpu time    0.02: real time    0.02
    SETDIJ:  cpu time    0.00: real time    0.01
    EDDIAG:  cpu time    0.18: real time    0.18
  RMM-DIIS:  cpu time    0.70: real time    0.70
    ORTHCH:  cpu time    0.05: real time    0.04
       DOS:  cpu time    0.00: real time    0.00
    CHARGE:  cpu time    0.05: real time    0.06
    MIXING:  cpu time    0.00: real time    0.00
    --------------------------------------------
      LOOP:  cpu time    1.00: real time    1.02

 eigenvalue-minimisations  :  1817
 total energy-change (2. order) :-0.1013758E+02  (-0.2863551E+02)
 number of electron      67.9998404 magnetization 
 augmentation part       31.3014535 magnetization 

 Broyden mixing:
  rms(total) = 0.25678E+01    rms(broyden)= 0.25670E+01
  rms(prec ) = 0.44800E+01
  weight for this iteration     100.00

 eigenvalues of (default mixing * dielectric matrix)
  average eigenvalue GAMMA=   0.5415
  0.5415

 Free energy of the ion-electron system (eV)
  ---------------------------------------------------
  alpha Z        PSCENC =        91.26717421
  Ewald energy   TEWEN  =     -3811.35586921
  -1/2 Hartree   DENC   =     -2154.50101665
  -exchange  EXHF       =         0.00000000
  -V(xc)+E(xc)   XCENC  =       -37.31438385
  PAW double counting   =      5649.72900966    -5764.73386877
  entropy T*S    EENTRO =        -0.01368470
  eigenvalues    EBANDS =       -31.54886461
  atomic energy  EATOM  =      5992.04272498
  ---------------------------------------------------
  free energy    TOTEN  =       -66.42877895 eV

  energy without entropy =      -66.41509425  energy(sigma->0) =      -66.42421739


--------------------------------------------------------------------------------------------------------




----------------------------------------- Iteration    1(   7)  ---------------------------------------


    POTLOK:  cpu time    0.01: real time    0.02
    SETDIJ:  cpu time    0.00: real time    0.01
    EDDIAG:  cpu time    0.19: real time    0.18
  RMM-DIIS:  cpu time    0.67: real time    0.68
    ORTHCH:  cpu time    0.05: real time    0.04
       DOS:  cpu time    0.00: real time    0.00
    CHARGE:  cpu time    0.06: real time    0.06
    MIXING:  cpu time    0.00: real time    0.00
    --------------------------------------------
      LOOP:  cpu time    0.99: real time    0.99

 eigenvalue-minimisations  :  1760
 total energy-change (2. order) : 0.1907364E+02  (-0.6855361E+01)
 number of electron      67.9998530 magnetization 
 augmentation part       28.0963047 magnetization 

 Broyden mixing:
  rms(total) = 0.45890E+00    rms(broyden)= 0.45846E+00
  rms(prec ) = 0.93228E+00
  weight for this iteration     100.00

 eigenvalues of (default mixing * dielectric matrix)
  average eigenvalue GAMMA=   0.9381
  0.6122  1.2641

 Free energy of the ion-electron system (eV)
  ---------------------------------------------------
  alpha Z        PSCENC =        91.26717421
  Ewald energy   TEWEN  =     -3811.35586921
  -1/2 Hartree   DENC   =     -2280.15209629
  -exchange  EXHF       =         0.00000000
  -V(xc)+E(xc)   XCENC  =       -32.16522460
  PAW double counting   =      6021.23909547    -6184.72564106
  entropy T*S    EENTRO =        -0.01710753
  eigenvalues    EBANDS =       156.51180506
  atomic energy  EATOM  =      5992.04272498
  ---------------------------------------------------
  free energy    TOTEN  =       -47.35513898 eV

  energy without entropy =      -47.33803145  energy(sigma->0) =      -47.34943647


--------------------------------------------------------------------------------------------------------




----------------------------------------- Iteration    1(   8)  ---------------------------------------


    POTLOK:  cpu time    0.01: real time    0.02
    SETDIJ:  cpu time    0.01: real time    0.01
    EDDIAG:  cpu time    0.18: real time    0.18
  RMM-DIIS:  cpu time    0.67: real time    0.67
    ORTHCH:  cpu time    0.05: real time    0.04
       DOS:  cpu time    0.00: real time    0.00
    CHARGE:  cpu time    0.06: real time    0.06
    MIXING:  cpu time    0.00: real time    0.00
    --------------------------------------------
      LOOP:  cpu time    0.98: real time    0.99

 eigenvalue-minimisations  :  1761
 total energy-change (2. order) : 0.3966836E+00  (-0.7151142E+00)
 number of electron      67.9998564 magnetization 
 augmentation part       27.1800354 magnetization 

 Broyden mixing:
  rms(total) = 0.22238E+00    rms(broyden)= 0.22200E+00
  rms(prec ) = 0.35654E+00
  weight for this iteration     100.00

 eigenvalues of (default mixing * dielectric matrix)
  average eigenvalue GAMMA=   1.2207
  2.2015  0.7303  0.7303

 Free energy of the ion-electron system (eV)
  ---------------------------------------------------
  alpha Z        PSCENC =        91.26717421
  Ewald energy   TEWEN  =     -3811.35586921
  -1/2 Hartree   DENC   =     -2309.59121113
  -exchange  EXHF       =         0.00000000
  -V(xc)+E(xc)   XCENC  =       -31.08454379
  PAW double counting   =      6337.30910110    -6512.76203707
  entropy T*S    EENTRO =        -0.01606302
  eigenvalues    EBANDS =       197.23226853
  atomic energy  EATOM  =      5992.04272498
  ---------------------------------------------------
  free energy    TOTEN  =       -46.95845541 eV

  energy without entropy =      -46.94239239  energy(sigma->0) =      -46.95310107


--------------------------------------------------------------------------------------------------------




----------------------------------------- Iteration    1(   9)  ---------------------------------------


    POTLOK:  cpu time    0.02: real time    0.02
    SETDIJ:  cpu time    0.01: real time    0.01
    EDDIAG:  cpu time    0.18: real time    0.18
  RMM-DIIS:  cpu time    0.68: real time    0.70
    ORTHCH:  cpu time    0.05: real time    0.04
       DOS:  cpu time    0.00: real time    0.00
    CHARGE:  cpu time    0.06: real time    0.06
    MIXING:  cpu time    0.00: real time    0.00
    --------------------------------------------
      LOOP:  cpu time    1.00: real time    1.01

 eigenvalue-minimisations  :  1810
 total energy-change (2. order) : 0.3522470E-01  (-0.6188052E-01)
 number of electron      67.9998558 magnetization 
 augmentation part       27.2925546 magnetization 

 Broyden mixing:
  rms(total) = 0.36763E-01    rms(broyden)= 0.36718E-01
  rms(prec ) = 0.68898E-01
  weight for this iteration     100.00

 eigenvalues of (default mixing * dielectric matrix)
  average eigenvalue GAMMA=   1.4084
  2.4955  0.7568  0.7568  1.6246

 Free energy of the ion-electron system (eV)
  ---------------------------------------------------
  alpha Z        PSCENC =        91.26717421
  Ewald energy   TEWEN  =     -3811.35586921
  -1/2 Hartree   DENC   =     -2304.05123253
  -exchange  EXHF       =         0.00000000
  -V(xc)+E(xc)   XCENC  =       -31.31791914
  PAW double counting   =      6807.74355830    -6986.54541082
  entropy T*S    EENTRO =        -0.01572062
  eigenvalues    EBANDS =       195.30946412
  atomic energy  EATOM  =      5992.04272498
  ---------------------------------------------------
  free energy    TOTEN  =       -46.92323071 eV

  energy without entropy =      -46.90751009  energy(sigma->0) =      -46.91799051


--------------------------------------------------------------------------------------------------------




----------------------------------------- Iteration    1(  10)  ---------------------------------------


    POTLOK:  cpu time    0.01: real time    0.02
    SETDIJ:  cpu time    0.01: real time    0.01
    EDDIAG:  cpu time    0.18: real time    0.18
  RMM-DIIS:  cpu time    0.68: real time    0.69
    ORTHCH:  cpu time    0.05: real time    0.04
       DOS:  cpu time    0.00: real time    0.00
    CHARGE:  cpu time    0.06: real time    0.06
    MIXING:  cpu time    0.00: real time    0.00
    --------------------------------------------
      LOOP:  cpu time    1.00: real time    1.00

 eigenvalue-minimisations  :  1778
 total energy-change (2. order) :-0.7803135E-02  (-0.4587560E-02)
 number of electron      67.9998559 magnetization 
 augmentation part       27.2610722 magnetization 

 Broyden mixing:
  rms(total) = 0.51469E-01    rms(broyden)= 0.51466E-01
  rms(prec ) = 0.10219E+00
  weight for this iteration     100.00

 eigenvalues of (default mixing * dielectric matrix)
  average eigenvalue GAMMA=   1.5284
  2.6005  2.4631  0.7330  0.7330  1.1127

 Free energy of the ion-electron system (eV)
  ---------------------------------------------------
  alpha Z        PSCENC =        91.26717421
  Ewald energy   TEWEN  =     -3811.35586921
  -1/2 Hartree   DENC   =     -2304.80437307
  -exchange  EXHF       =         0.00000000
  -V(xc)+E(xc)   XCENC  =       -31.22224137
  PAW double counting   =      6819.13986598    -6998.29718674
  entropy T*S    EENTRO =        -0.01570783
  eigenvalues    EBANDS =       196.31457921
  atomic energy  EATOM  =      5992.04272498
  ---------------------------------------------------
  free energy    TOTEN  =       -46.93103385 eV

  energy without entropy =      -46.91532602  energy(sigma->0) =      -46.92579791


--------------------------------------------------------------------------------------------------------




----------------------------------------- Iteration    1(  11)  ---------------------------------------


    POTLOK:  cpu time    0.01: real time    0.02
    SETDIJ:  cpu time    0.01: real time    0.01
    EDDIAG:  cpu time    0.18: real time    0.18
  RMM-DIIS:  cpu time    0.69: real time    0.69
    ORTHCH:  cpu time    0.04: real time    0.04
       DOS:  cpu time    0.00: real time    0.00
    CHARGE:  cpu time    0.06: real time    0.05
    MIXING:  cpu time    0.00: real time    0.00
    --------------------------------------------
      LOOP:  cpu time    0.99: real time    1.00

 eigenvalue-minimisations  :  1760
 total energy-change (2. order) : 0.6821750E-02  (-0.1376668E-02)
 number of electron      67.9998558 magnetization 
 augmentation part       27.3244866 magnetization 

 Broyden mixing:
  rms(total) = 0.16249E-01    rms(broyden)= 0.16238E-01
  rms(prec ) = 0.26646E-01
  weight for this iteration     100.00

 eigenvalues of (default mixing * dielectric matrix)
  average eigenvalue GAMMA=   1.4274
  2.6018  2.2928  0.7360  0.7360  1.0989  1.0989

 Free energy of the ion-electron system (eV)
  ---------------------------------------------------
  alpha Z        PSCENC =        91.26717421
  Ewald energy   TEWEN  =     -3811.35586921
  -1/2 Hartree   DENC   =     -2302.17295732
  -exchange  EXHF       =         0.00000000
  -V(xc)+E(xc)   XCENC  =       -31.25706879
  PAW double counting   =      6786.80310962    -6965.45558857
  entropy T*S    EENTRO =        -0.01580333
  eigenvalues    EBANDS =       193.22006632
  atomic energy  EATOM  =      5992.04272498
  ---------------------------------------------------
  free energy    TOTEN  =       -46.92421210 eV

  energy without entropy =      -46.90840877  energy(sigma->0) =      -46.91894432


--------------------------------------------------------------------------------------------------------




----------------------------------------- Iteration    1(  12)  ---------------------------------------


    POTLOK:  cpu time    0.01: real time    0.02
    SETDIJ:  cpu time    0.01: real time    0.01
    EDDIAG:  cpu time    0.18: real time    0.18
  RMM-DIIS:  cpu time    0.69: real time    0.70
    ORTHCH:  cpu time    0.05: real time    0.04
       DOS:  cpu time    0.00: real time    0.00
    CHARGE:  cpu time    0.05: real time    0.06
    MIXING:  cpu time    0.01: real time    0.00
    --------------------------------------------
      LOOP:  cpu time    1.00: real time    1.01

 eigenvalue-minimisations  :  1769
 total energy-change (2. order) : 0.1325114E-03  (-0.7195733E-03)
 number of electron      67.9998556 magnetization 
 augmentation part       27.3628136 magnetization 

 Broyden mixing:
  rms(total) = 0.85401E-02    rms(broyden)= 0.85274E-02
  rms(prec ) = 0.16073E-01
  weight for this iteration     100.00

 eigenvalues of (default mixing * dielectric matrix)
  average eigenvalue GAMMA=   1.6850
  3.3564  2.8511  1.9486  0.7393  0.7393  1.2449  0.9155

 Free energy of the ion-electron system (eV)
  ---------------------------------------------------
  alpha Z        PSCENC =        91.26717421
  Ewald energy   TEWEN  =     -3811.35586921
  -1/2 Hartree   DENC   =     -2301.27359034
  -exchange  EXHF       =         0.00000000
  -V(xc)+E(xc)   XCENC  =       -31.29682454
  PAW double counting   =      6787.03364659    -6965.28401515
  entropy T*S    EENTRO =        -0.01581309
  eigenvalues    EBANDS =       191.95848696
  atomic energy  EATOM  =      5992.04272498
  ---------------------------------------------------
  free energy    TOTEN  =       -46.92407959 eV

  energy without entropy =      -46.90826650  energy(sigma->0) =      -46.91880856


--------------------------------------------------------------------------------------------------------




----------------------------------------- Iteration    1(  13)  ---------------------------------------


    POTLOK:  cpu time    0.02: real time    0.02
    SETDIJ:  cpu time    0.01: real time    0.01
    EDDIAG:  cpu time    0.17: real time    0.17
  RMM-DIIS:  cpu time    0.68: real time    0.69
    ORTHCH:  cpu time    0.05: real time    0.04
       DOS:  cpu time    0.00: real time    0.00
    CHARGE:  cpu time    0.05: real time    0.06
    MIXING:  cpu time    0.01: real time    0.00
    --------------------------------------------
      LOOP:  cpu time    0.99: real time    1.00

 eigenvalue-minimisations  :  1770
 total energy-change (2. order) : 0.1434100E-03  (-0.5469050E-04)
 number of electron      67.9998557 magnetization 
 augmentation part       27.3473737 magnetization 

 Broyden mixing:
  rms(total) = 0.22745E-02    rms(broyden)= 0.22737E-02
  rms(prec ) = 0.34738E-02
  weight for this iteration     100.00

 eigenvalues of (default mixing * dielectric matrix)
  average eigenvalue GAMMA=   1.5345
  2.7795  2.7795  2.0657  0.7390  0.7390  1.0556  1.0587  1.0587

 Free energy of the ion-electron system (eV)
  ---------------------------------------------------
  alpha Z        PSCENC =        91.26717421
  Ewald energy   TEWEN  =     -3811.35586921
  -1/2 Hartree   DENC   =     -2302.06446241
  -exchange  EXHF       =         0.00000000
  -V(xc)+E(xc)   XCENC  =       -31.26905957
  PAW double counting   =      6786.19919147    -6964.38238049
  entropy T*S    EENTRO =        -0.01579739
  eigenvalues    EBANDS =       192.65454225
  atomic energy  EATOM  =      5992.04272498
  ---------------------------------------------------
  free energy    TOTEN  =       -46.92393618 eV

  energy without entropy =      -46.90813879  energy(sigma->0) =      -46.91867038


--------------------------------------------------------------------------------------------------------




----------------------------------------- Iteration    1(  14)  ---------------------------------------


    POTLOK:  cpu time    0.02: real time    0.02
    SETDIJ:  cpu time    0.01: real time    0.01
    EDDIAG:  cpu time    0.18: real time    0.18
  RMM-DIIS:  cpu time    0.70: real time    0.70
    ORTHCH:  cpu time    0.05: real time    0.04
       DOS:  cpu time    0.00: real time    0.00
    CHARGE:  cpu time    0.05: real time    0.06
    MIXING:  cpu time    0.00: real time    0.00
    --------------------------------------------
      LOOP:  cpu time    1.01: real time    1.02

 eigenvalue-minimisations  :  1812
 total energy-change (2. order) :-0.4984035E-05  (-0.1451544E-04)
 number of electron      67.9998556 magnetization 
 augmentation part       27.3530832 magnetization 

 Broyden mixing:
  rms(total) = 0.16609E-02    rms(broyden)= 0.16602E-02
  rms(prec ) = 0.29379E-02
  weight for this iteration     100.00

 eigenvalues of (default mixing * dielectric matrix)
  average eigenvalue GAMMA=   1.6504
  3.2766  2.6987  2.1441  2.1441  0.7388  0.7388  1.1978  1.0721  0.8430

 Free energy of the ion-electron system (eV)
  ---------------------------------------------------
  alpha Z        PSCENC =        91.26717421
  Ewald energy   TEWEN  =     -3811.35586921
  -1/2 Hartree   DENC   =     -2301.96497570
  -exchange  EXHF       =         0.00000000
  -V(xc)+E(xc)   XCENC  =       -31.27506010
  PAW double counting   =      6786.29099844    -6964.40944316
  entropy T*S    EENTRO =        -0.01579738
  eigenvalues    EBANDS =       192.49630677
  atomic energy  EATOM  =      5992.04272498
  ---------------------------------------------------
  free energy    TOTEN  =       -46.92394116 eV

  energy without entropy =      -46.90814379  energy(sigma->0) =      -46.91867537


--------------------------------------------------------------------------------------------------------




----------------------------------------- Iteration    1(  15)  ---------------------------------------


    POTLOK:  cpu time    0.01: real time    0.02
    SETDIJ:  cpu time    0.01: real time    0.01
    EDDIAG:  cpu time    0.17: real time    0.18
  RMM-DIIS:  cpu time    0.68: real time    0.68
    ORTHCH:  cpu time    0.05: real time    0.04
       DOS:  cpu time    0.00: real time    0.00
    CHARGE:  cpu time    0.06: real time    0.06
    MIXING:  cpu time    0.00: real time    0.00
    --------------------------------------------
      LOOP:  cpu time    0.99: real time    0.99

 eigenvalue-minimisations  :  1780
 total energy-change (2. order) : 0.1962215E-05  (-0.1965116E-05)
 number of electron      67.9998557 magnetization 
 augmentation part       27.3519387 magnetization 

 Broyden mixing:
  rms(total) = 0.87842E-03    rms(broyden)= 0.87842E-03
  rms(prec ) = 0.17881E-02
  weight for this iteration     100.00

 eigenvalues of (default mixing * dielectric matrix)
  average eigenvalue GAMMA=   1.6657
  3.7277  2.5365  2.5365  2.3741  1.2325  1.0947  0.7408  0.7408  0.8368  0.8368

 Free energy of the ion-electron system (eV)
  ---------------------------------------------------
  alpha Z        PSCENC =        91.26717421
  Ewald energy   TEWEN  =     -3811.35586921
  -1/2 Hartree   DENC   =     -2301.98537365
  -exchange  EXHF       =         0.00000000
  -V(xc)+E(xc)   XCENC  =       -31.27358505
  PAW double counting   =      6784.85497766    -6962.99752757
  entropy T*S    EENTRO =        -0.01579763
  eigenvalues    EBANDS =       192.53933706
  atomic energy  EATOM  =      5992.04272498
  ---------------------------------------------------
  free energy    TOTEN  =       -46.92393920 eV

  energy without entropy =      -46.90814157  energy(sigma->0) =      -46.91867332


--------------------------------------------------------------------------------------------------------




----------------------------------------- Iteration    1(  16)  ---------------------------------------


    POTLOK:  cpu time    0.02: real time    0.02
    SETDIJ:  cpu time    0.00: real time    0.01
    EDDIAG:  cpu time    0.18: real time    0.18
  RMM-DIIS:  cpu time    0.44: real time    0.44
    ORTHCH:  cpu time    0.04: real time    0.04
       DOS:  cpu time    0.01: real time    0.00
    --------------------------------------------
      LOOP:  cpu time    0.69: real time    0.70

 eigenvalue-minimisations  :  1139
 total energy-change (2. order) :-0.9925825E-06  (-0.2125395E-06)
 number of electron      67.9998557 magnetization 
 augmentation part       27.3519387 magnetization 

 Free energy of the ion-electron system (eV)
  ---------------------------------------------------
  alpha Z        PSCENC =        91.26717421
  Ewald energy   TEWEN  =     -3811.35586921
  -1/2 Hartree   DENC   =     -2301.97641609
  -exchange  EXHF       =         0.00000000
  -V(xc)+E(xc)   XCENC  =       -31.27441720
  PAW double counting   =      6784.01990156    -6962.17542179
  entropy T*S    EENTRO =        -0.01579734
  eigenvalues    EBANDS =       192.54418069
  atomic energy  EATOM  =      5992.04272498
  ---------------------------------------------------
  free energy    TOTEN  =       -46.92394019 eV

  energy without entropy =      -46.90814285  energy(sigma->0) =      -46.91867441


--------------------------------------------------------------------------------------------------------




 average (electrostatic) potential at core
  the test charge radii are     0.9430  1.0406
  (the norm of the test charge is              1.0000)
       1 -65.4759       2 -65.4759       3 -65.4759       4 -65.4759       5 -73.3579
       6 -73.3579       7 -73.3579       8 -73.3579       9 -73.3579      10 -73.3579
      11 -73.3579      12 -73.3579
 
 
 
 E-fermi :   6.9998     XC(G=0): -10.4449     alpha+bet :-13.5681


 k-point   1 :       0.0000    0.0000    0.0000
  band No.  band energies     occupation 
      1      -3.1820      2.00000
      2       0.8622      2.00000
      3       0.8622      2.00000
      4       0.8622      2.00000
      5       1.2033      2.00000
      6       1.2033      2.00000
      7       1.2033      2.00000
      8       1.8832      2.00000
      9       1.8832      2.00000
     10       1.8832      2.00000
     11       2.4582      2.00000
     12       2.4582      2.00000
     13       2.4582      2.00000
     14       2.9531      2.00000
     15       2.9531      2.00000
     16       2.9531      2.00000
     17       2.9531      2.00000
     18       2.9531      2.00000
     19       2.9531      2.00000
     20       3.0205      2.00000
     21       3.0205      2.00000
     22       3.1754      2.00000
     23       3.1754      2.00000
     24       3.1754      2.00000
     25       3.2925      2.00000
     26       3.2925      2.00000
     27       3.2925      2.00000
     28       5.0312      2.00000
     29       5.0312      2.00000
     30       5.0312      2.00000
     31       5.0312      2.00000
     32       5.0312      2.00000
     33       5.0312      2.00000
     34       7.2933     -0.05815
     35       7.2933     -0.05815
     36       7.2933     -0.05815
     37       8.5635      0.00000
     38       8.5635      0.00000
     39       8.5635      0.00000
     40       9.8786      0.00000
     41       9.8786      0.00000
     42       9.9322      0.00000
     43       9.9335      0.00000
     44       9.9335      0.00000

 k-point   2 :       0.1429    0.0000    0.0000
  band No.  band energies     occupation 
      1      -3.0911      2.00000
      2      -0.0227      2.00000
      3       0.9180      2.00000
      4       0.9180      2.00000
      5       1.2786      2.00000
      6       1.2786      2.00000
      7       1.8447      2.00000
      8       1.8447      2.00000
      9       1.9112      2.00000
     10       2.0190      2.00000
     11       2.4303      2.00000
     12       2.4719      2.00000
     13       2.4719      2.00000
     14       2.9077      2.00000
     15       2.9077      2.00000
     16       2.9535      2.00000
     17       2.9535      2.00000
     18       2.9839      2.00000
     19       2.9839      2.00000
     20       3.0047      2.00000
     21       3.0282      2.00000
     22       3.1112      2.00000
     23       3.1112      2.00000
     24       3.1678      2.00000
     25       3.2361      2.00000
     26       3.2361      2.00000
     27       3.5297      2.00000
     28       4.6863      2.00000
     29       4.6863      2.00000
     30       4.8958      2.00000
     31       4.8958      2.00000
     32       5.1686      2.00000
     33       5.1686      2.00000
     34       7.3441     -0.03523
     35       7.8187      0.00000
     36       7.8187      0.00000
     37       8.6363      0.00000
     38       8.7527      0.00000
     39       8.7527      0.00000
     40       8.9974      0.00000
     41       8.9974      0.00000
     42       9.4027      0.00000
     43       9.5652      0.00000
     44      11.1903      0.00000

 k-point   3 :       0.2857    0.0000    0.0000
  band No.  band energies     occupation 
      1      -2.8191      2.00000
      2      -0.9557      2.00000
      3       1.0747      2.00000
      4       1.0747      2.00000
      5       1.4983      2.00000
      6       1.4983      2.00000
      7       1.7283      2.00000
      8       1.7283      2.00000
      9       1.9914      2.00000
     10       2.3515      2.00000
     11       2.5139      2.00000
     12       2.5139      2.00000
     13       2.5488      2.00000
     14       2.7919      2.00000
     15       2.7919      2.00000
     16       2.8022      2.00000
     17       2.8022      2.00000
     18       2.9535      2.00000
     19       2.9535      2.00000
     20       2.9552      2.00000
     21       3.0499      2.00000
     22       3.0846      2.00000
     23       3.0846      2.00000
     24       3.1462      2.00000
     25       3.2148      2.00000
     26       3.2148      2.00000
     27       4.0992      2.00000
     28       4.0992      2.00000
     29       4.4262      2.00000
     30       4.6883      2.00000
     31       4.6883      2.00000
     32       5.5501      2.00000
     33       5.5501      2.00000
     34       7.5015     -0.00223
     35       7.7354      0.00000
     36       7.7354      0.00000
     37       8.6073      0.00000
     38       8.7354      0.00000
     39       8.8655      0.00000
     40       8.9489      0.00000
     41       8.9489      0.00000
     42      10.0802      0.00000
     43      10.0802      0.00000
     44      10.9743      0.00000

 k-point   4 :       0.4286    0.0000    0.0000
  band No.  band energies     occupation 
      1      -2.3685      2.00000
      2      -1.7443      2.00000
      3       1.2998      2.00000
      4       1.2998      2.00000
      5       1.5369      2.00000
      6       1.5369      2.00000
      7       1.8308      2.00000
      8       1.8308      2.00000
      9       2.1071      2.00000
     10       2.2354      2.00000
     11       2.3552      2.00000
     12       2.3552      2.00000
     13       2.5850      2.00000
     14       2.5850      2.00000
     15       2.6850      2.00000
     16       2.6850      2.00000
     17       2.7578      2.00000
     18       2.8756      2.00000
     19       2.9538      2.00000
     20       2.9538      2.00000
     21       3.0801      2.00000
     22       3.1149      2.00000
     23       3.2128      2.00000
     24       3.2128      2.00000
     25       3.2813      2.00000
     26       3.2813      2.00000
     27       3.6100      2.00000
     28       3.6100      2.00000
     29       4.5815      2.00000
     30       4.5815      2.00000
     31       5.7845      2.00000
     32       6.1236      2.00000
     33       6.1236      2.00000
     34       6.8568      1.93004
     35       6.8568      1.93004
     36       7.2622     -0.06884
     37       7.7767      0.00000
     38       8.1847      0.00000
     39       9.2791      0.00000
     40       9.9415      0.00000
     41      10.3350      0.00000
     42      10.3350      0.00000
     43      11.5156      0.00000
     44      11.5662      0.00000

 k-point   5 :       0.1429    0.1429    0.0000
  band No.  band energies     occupation 
      1      -3.0004      2.00000
      2       0.0522      2.00000
      3       0.0522      2.00000
      4       0.9724      2.00000
      5       1.3341      2.00000
      6       1.7849      2.00000
      7       1.8742      2.00000
      8       1.8742      2.00000
      9       2.0571      2.00000
     10       2.0571      2.00000
     11       2.3994      2.00000
     12       2.4827      2.00000
     13       2.4877      2.00000
     14       2.9081      2.00000
     15       2.9081      2.00000
     16       2.9338      2.00000
     17       2.9339      2.00000
     18       2.9339      2.00000
     19       3.0016      2.00000
     20       3.0249      2.00000
     21       3.0358      2.00000
     22       3.0928      2.00000
     23       3.1185      2.00000
     24       3.1359      2.00000
     25       3.1359      2.00000
     26       3.4478      2.00000
     27       3.4478      2.00000
     28       4.2436      2.00000
     29       4.8109      2.00000
     30       4.8109      2.00000
     31       5.0455      2.00000
     32       5.0455      2.00000
     33       5.2607      2.00000
     34       7.8334      0.00000
     35       7.8809      0.00000
     36       7.8809      0.00000
     37       7.9888      0.00000
     38       8.0436      0.00000
     39       9.0727      0.00000
     40       9.0727      0.00000
     41       9.5971      0.00000
     42       9.8779      0.00000
     43       9.9933      0.00000
     44      10.8093      0.00000

 k-point   6 :       0.2857    0.1429    0.0000
  band No.  band energies     occupation 
      1      -2.7292      2.00000
      2      -0.8737      2.00000
      3       0.2710      2.00000
      4       1.1252      2.00000
      5       1.3503      2.00000
      6       1.7361      2.00000
      7       1.7603      2.00000
      8       1.9557      2.00000
      9       2.1610      2.00000
     10       2.3187      2.00000
     11       2.5161      2.00000
     12       2.5264      2.00000
     13       2.5288      2.00000
     14       2.7901      2.00000
     15       2.8045      2.00000
     16       2.8419      2.00000
     17       2.8907      2.00000
     18       2.9092      2.00000
     19       2.9197      2.00000
     20       2.9616      2.00000
     21       3.0236      2.00000
     22       3.0442      2.00000
     23       3.1151      2.00000
     24       3.1360      2.00000
     25       3.1555      2.00000
     26       3.3657      2.00000
     27       3.9065      2.00000
     28       4.2100      2.00000
     29       4.2771      2.00000
     30       4.8828      2.00000
     31       5.1528      2.00000
     32       5.2265      2.00000
     33       5.5050      2.00000
     34       7.0908      0.31123
     35       7.0970      0.27557
     36       8.0718      0.00000
     37       8.5100      0.00000
     38       9.0191      0.00000
     39       9.1027      0.00000
     40       9.3037      0.00000
     41       9.4941      0.00000
     42      10.1536      0.00000
     43      10.8107      0.00000
     44      11.2513      0.00000

 k-point   7 :       0.4286    0.1429    0.0000
  band No.  band energies     occupation 
      1      -2.2802      2.00000
      2      -1.6585      2.00000
      3       0.6128      2.00000
      4       1.0223      2.00000
      5       1.3439      2.00000
      6       1.5740      2.00000
      7       2.0165      2.00000
      8       2.0737      2.00000
      9       2.2033      2.00000
     10       2.2962      2.00000
     11       2.4799      2.00000
     12       2.5232      2.00000
     13       2.5712      2.00000
     14       2.5970      2.00000
     15       2.6245      2.00000
     16       2.6920      2.00000
     17       2.8216      2.00000
     18       2.8949      2.00000
     19       2.9110      2.00000
     20       2.9133      2.00000
     21       3.0774      2.00000
     22       3.0833      2.00000
     23       3.1101      2.00000
     24       3.1114      2.00000
     25       3.3660      2.00000
     26       3.4562      2.00000
     27       3.6598      2.00000
     28       3.7087      2.00000
     29       4.8607      2.00000
     30       4.9946      2.00000
     31       5.3203      2.00000
     32       5.6622      2.00000
     33       6.2112      2.00000
     34       6.3113      2.00001
     35       6.3942      2.00016
     36       7.7300      0.00000
     37       8.4011      0.00000
     38       8.8779      0.00000
     39       9.7088      0.00000
     40       9.7694      0.00000
     41      10.3246      0.00000
     42      10.4033      0.00000
     43      11.1992      0.00000
     44      11.7909      0.00000

 k-point   8 :       0.2857    0.2857    0.0000
  band No.  band energies     occupation 
      1      -2.4607      2.00000
      2      -0.6312      2.00000
      3      -0.6312      2.00000
      4       0.8613      2.00000
      5       1.2667      2.00000
      6       1.8490      2.00000
      7       1.8490      2.00000
      8       1.9132      2.00000
      9       2.2333      2.00000
     10       2.4833      2.00000
     11       2.4833      2.00000
     12       2.5252      2.00000
     13       2.5675      2.00000
     14       2.7671      2.00000
     15       2.8116      2.00000
     16       2.8116      2.00000
     17       2.8768      2.00000
     18       2.9087      2.00000
     19       2.9087      2.00000
     20       2.9586      2.00000
     21       3.0145      2.00000
     22       3.0464      2.00000
     23       3.0810      2.00000
     24       3.0810      2.00000
     25       3.3199      2.00000
     26       3.7787      2.00000
     27       3.9390      2.00000
     28       3.9390      2.00000
     29       4.5088      2.00000
     30       4.5088      2.00000
     31       5.5326      2.00000
     32       5.5326      2.00000
     33       5.8806      2.00000
     34       6.2159      2.00000
     35       6.2549      2.00000
     36       8.3151      0.00000
     37       9.1888      0.00000
     38       9.2307      0.00000
     39       9.2307      0.00000
     40      10.3477      0.00000
     41      10.3711      0.00000
     42      10.3711      0.00000
     43      11.0523      0.00000
     44      11.4838      0.00000

 k-point   9 :       0.4286    0.2857    0.0000
  band No.  band energies     occupation 
      1      -2.0166      2.00000
      2      -1.4029      2.00000
      3      -0.2386      2.00000
      4       0.2793      2.00000
      5       1.4667      2.00000
      6       1.6767      2.00000
      7       1.9753      2.00000
      8       2.1123      2.00000
      9       2.1903      2.00000
     10       2.4045      2.00000
     11       2.5424      2.00000
     12       2.5485      2.00000
     13       2.6283      2.00000
     14       2.7117      2.00000
     15       2.7602      2.00000
     16       2.8249      2.00000
     17       2.8457      2.00000
     18       2.8721      2.00000
     19       2.8922      2.00000
     20       2.9248      2.00000
     21       2.9957      2.00000
     22       2.9957      2.00000
     23       3.0753      2.00000
     24       3.1001      2.00000
     25       3.5778      2.00000
     26       3.7115      2.00000
     27       3.7229      2.00000
     28       3.9664      2.00000
     29       4.6693      2.00000
     30       4.9552      2.00000
     31       5.4063      2.00000
     32       5.5370      2.00000
     33       5.7082      2.00000
     34       5.9391      2.00000
     35       6.6781      2.04534
     36       8.0844      0.00000
     37       9.0999      0.00000
     38       9.5825      0.00000
     39      10.0503      0.00000
     40      10.4876      0.00000
     41      10.6027      0.00000
     42      10.7081      0.00000
     43      10.9196      0.00000
     44      11.6498      0.00000

 k-point  10 :       0.4286    0.4286    0.0000
  band No.  band energies     occupation 
      1      -1.5817      2.00000
      2      -0.9834      2.00000
      3      -0.9834      2.00000
      4      -0.4131      2.00000
      5       1.6399      2.00000
      6       1.8224      2.00000
      7       1.8224      2.00000
      8       1.9779      2.00000
      9       2.3534      2.00000
     10       2.4679      2.00000
     11       2.4679      2.00000
     12       2.5100      2.00000
     13       2.6763      2.00000
     14       2.7426      2.00000
     15       2.7426      2.00000
     16       2.7877      2.00000
     17       2.9263      2.00000
     18       2.9263      2.00000
     19       2.9298      2.00000
     20       2.9445      2.00000
     21       2.9476      2.00000
     22       3.0612      2.00000
     23       3.0612      2.00000
     24       3.0817      2.00000
     25       3.8233      2.00000
     26       3.8997      2.00000
     27       4.1308      2.00000
     28       4.1308      2.00000
     29       4.3536      2.00000
     30       4.3536      2.00000
     31       4.6976      2.00000
     32       4.8744      2.00000
     33       6.8002      2.04983
     34       6.9160      1.64473
     35       6.9160      1.64473
     36       7.9553      0.00000
     37       8.9718      0.00000
     38       9.9053      0.00000
     39       9.9249      0.00000
     40       9.9249      0.00000
     41      10.8924      0.00000
     42      10.8925      0.00000
     43      10.9686      0.00000
     44      11.9123      0.00000

 k-point  11 :       0.1429    0.1429    0.1429
  band No.  band energies     occupation 
      1      -2.9100      2.00000
      2       0.1240      2.00000
      3       0.1240      2.00000
      4       0.1240      2.00000
      5       1.7996      2.00000
      6       1.7996      2.00000
      7       1.7996      2.00000
      8       2.0952      2.00000
      9       2.0952      2.00000
     10       2.0952      2.00000
     11       2.3657      2.00000
     12       2.4978      2.00000
     13       2.4978      2.00000
     14       2.8831      2.00000
     15       2.8831      2.00000
     16       2.8831      2.00000
     17       2.9879      2.00000
     18       2.9879      2.00000
     19       2.9879      2.00000
     20       3.0106      2.00000
     21       3.0106      2.00000
     22       3.1293      2.00000
     23       3.1293      2.00000
     24       3.1293      2.00000
     25       3.2946      2.00000
     26       3.2946      2.00000
     27       3.2946      2.00000
     28       4.4323      2.00000
     29       4.4323      2.00000
     30       4.4323      2.00000
     31       5.3849      2.00000
     32       5.3849      2.00000
     33       5.3849      2.00000
     34       7.0258      0.78215
     35       7.8964      0.00000
     36       7.8964      0.00000
     37       7.8964      0.00000
     38       8.8360      0.00000
     39       8.8360      0.00000
     40       9.6737      0.00000
     41       9.6737      0.00000
     42       9.6737      0.00000
     43      10.5759      0.00000
     44      11.0621      0.00000

 k-point  12 :       0.2857    0.1429    0.1429
  band No.  band energies     occupation 
      1      -2.6398      2.00000
      2      -0.7935      2.00000
      3       0.3295      2.00000
      4       0.3295      2.00000
      5       1.5706      2.00000
      6       1.5706      2.00000
      7       1.8936      2.00000
      8       2.1939      2.00000
      9       2.1939      2.00000
     10       2.2799      2.00000
     11       2.5159      2.00000
     12       2.5303      2.00000
     13       2.5325      2.00000
     14       2.7795      2.00000
     15       2.8543      2.00000
     16       2.8543      2.00000
     17       2.8995      2.00000
     18       2.9152      2.00000
     19       2.9152      2.00000
     20       2.9715      2.00000
     21       3.0381      2.00000
     22       3.0692      2.00000
     23       3.0692      2.00000
     24       3.1306      2.00000
     25       3.1960      2.00000
     26       3.1960      2.00000
     27       3.9501      2.00000
     28       4.1855      2.00000
     29       4.1855      2.00000
     30       5.0636      2.00000
     31       5.3507      2.00000
     32       5.3507      2.00000
     33       5.7386      2.00000
     34       6.1248      2.00000
     35       7.8490      0.00000
     36       8.0931      0.00000
     37       8.5789      0.00000
     38       8.5789      0.00000
     39       8.6210      0.00000
     40       9.9056      0.00000
     41      10.0323      0.00000
     42      10.8844      0.00000
     43      10.8891      0.00000
     44      11.3417      0.00000

 k-point  13 :       0.4286    0.1429    0.1429
  band No.  band energies     occupation 
      1      -2.1925      2.00000
      2      -1.5736      2.00000
      3       0.6106      2.00000
      4       0.6106      2.00000
      5       1.2470      2.00000
      6       1.2470      2.00000
      7       2.0203      2.00000
      8       2.1581      2.00000
      9       2.3194      2.00000
     10       2.3194      2.00000
     11       2.5799      2.00000
     12       2.5889      2.00000
     13       2.6105      2.00000
     14       2.6282      2.00000
     15       2.6282      2.00000
     16       2.6735      2.00000
     17       2.8671      2.00000
     18       2.8671      2.00000
     19       2.8674      2.00000
     20       2.9150      2.00000
     21       3.0742      2.00000
     22       3.1074      2.00000
     23       3.1074      2.00000
     24       3.1085      2.00000
     25       3.2624      2.00000
     26       3.2624      2.00000
     27       4.0589      2.00000
     28       4.0589      2.00000
     29       4.6516      2.00000
     30       5.1689      2.00000
     31       5.1689      2.00000
     32       5.3427      2.00000
     33       6.2152      2.00000
     34       6.2847      2.00001
     35       6.9942      1.04766
     36       7.5678     -0.00044
     37       8.4500      0.00000
     38       9.0456      0.00000
     39       9.8292      0.00000
     40       9.8292      0.00000
     41      10.2997      0.00000
     42      10.8681      0.00000
     43      11.3922      0.00000
     44      11.3948      0.00000

 k-point  14 :       0.2857    0.2857    0.1429
  band No.  band energies     occupation 
      1      -2.3725      2.00000
      2      -0.5571      2.00000
      3      -0.5571      2.00000
      4       0.4511      2.00000
      5       1.1532      2.00000
      6       1.6967      2.00000
      7       1.6967      2.00000
      8       2.1772      2.00000
      9       2.2759      2.00000
     10       2.4922      2.00000
     11       2.4922      2.00000
     12       2.5417      2.00000
     13       2.5664      2.00000
     14       2.7676      2.00000
     15       2.7676      2.00000
     16       2.8186      2.00000
     17       2.8543      2.00000
     18       2.9718      2.00000
     19       2.9718      2.00000
     20       2.9761      2.00000
     21       3.0387      2.00000
     22       3.0532      2.00000
     23       3.0838      2.00000
     24       3.0838      2.00000
     25       3.1847      2.00000
     26       3.4897      2.00000
     27       3.4897      2.00000
     28       4.2376      2.00000
     29       4.9563      2.00000
     30       4.9563      2.00000
     31       5.2672      2.00000
     32       5.7653      2.00000
     33       5.7653      2.00000
     34       5.9793      2.00000
     35       7.2900     -0.05956
     36       8.3832      0.00000
     37       8.7890      0.00000
     38       8.7890      0.00000
[...]
     33       6.0251      2.00000
     34       6.5124      2.00372
     35       6.6884      2.05432
     36       7.9817      0.00000
     37       9.1417      0.00000
     38       9.1525      0.00000
     39       9.6962      0.00000
     40       9.9625      0.00000
     41      10.6907      0.00000
     42      11.0890      0.00000
     43      11.3631      0.00000
     44      11.5494      0.00000

 k-point  16 :       0.4286    0.4286    0.1429
  band No.  band energies     occupation 
      1      -1.5040      2.00000
      2      -0.9137      2.00000
      3      -0.9137      2.00000
      4      -0.3621      2.00000
      5       1.2936      2.00000
      6       1.5940      2.00000
      7       1.5940      2.00000
      8       1.8284      2.00000
      9       2.4432      2.00000
     10       2.5042      2.00000
     11       2.5042      2.00000
     12       2.5331      2.00000
     13       2.6498      2.00000
     14       2.7003      2.00000
     15       2.7003      2.00000
     16       2.7346      2.00000
     17       2.9567      2.00000
     18       2.9572      2.00000
     19       2.9639      2.00000
     20       2.9639      2.00000
     21       2.9842      2.00000
     22       3.0585      2.00000
     23       3.0585      2.00000
     24       3.0760      2.00000
     25       3.3484      2.00000
     26       3.5360      2.00000
     27       3.5360      2.00000
     28       3.9461      2.00000
     29       4.7647      2.00000
     30       5.2406      2.00000
     31       5.2406      2.00000
     32       5.8398      2.00000
     33       6.8578      1.89334
     34       6.9594      1.26016
     35       6.9594      1.26016
     36       7.9412      0.00000
     37       9.0285      0.00000
     38       9.8956      0.00000
     39       9.8956      0.00000
     40       9.9482      0.00000
     41      10.5014      0.00000
     42      10.5014      0.00000
     43      10.5616      0.00000
     44      11.4631      0.00000

 k-point  17 :       0.2857    0.2857    0.2857
  band No.  band energies     occupation 
      1      -2.1134      2.00000
      2      -0.3514      2.00000
      3      -0.3514      2.00000
      4      -0.3514      2.00000
      5       1.2869      2.00000
      6       1.2869      2.00000
      7       1.2869      2.00000
      8       2.0200      2.00000
      9       2.5010      2.00000
     10       2.5010      2.00000
     11       2.5010      2.00000
     12       2.5659      2.00000
     13       2.5659      2.00000
     14       2.7204      2.00000
     15       2.7204      2.00000
     16       2.7204      2.00000
     17       3.0142      2.00000
     18       3.0142      2.00000
     19       3.0479      2.00000
     20       3.0479      2.00000
     21       3.0479      2.00000
     22       3.0869      2.00000
     23       3.0869      2.00000
     24       3.0869      2.00000
     25       3.1080      2.00000
     26       3.1080      2.00000
     27       3.1080      2.00000
     28       4.4642      2.00000
     29       5.2666      2.00000
     30       5.2666      2.00000
     31       5.2666      2.00000
     32       6.2616      2.00000
     33       6.2616      2.00000
     34       6.2616      2.00000
     35       8.0763      0.00000
     36       8.0763      0.00000
     37       8.5846      0.00000
     38       8.5846      0.00000
     39       8.5846      0.00000
     40      10.5350      0.00000
     41      10.5704      0.00000
     42      10.5704      0.00000
     43      12.0747      0.00000
     44      12.0748      0.00000

 k-point  18 :       0.4286    0.2857    0.2857
  band No.  band energies     occupation 
      1      -1.6795      2.00000
      2      -1.0847      2.00000
      3      -0.0774      2.00000
      4      -0.0774      2.00000
      5       0.8536      2.00000
      6       0.8536      2.00000
      7       1.5265      2.00000
      8       1.7919      2.00000
      9       2.5081      2.00000
     10       2.5081      2.00000
     11       2.5730      2.00000
     12       2.5848      2.00000
     13       2.5899      2.00000
     14       2.6409      2.00000
     15       2.7013      2.00000
     16       2.7013      2.00000
     17       2.9510      2.00000
     18       2.9510      2.00000
     19       2.9924      2.00000
     20       2.9933      2.00000
     21       3.0608      2.00000
     22       3.0756      2.00000
     23       3.0756      2.00000
     24       3.0898      2.00000
     25       3.1250      2.00000
     26       3.1250      2.00000
     27       3.4345      2.00000
     28       3.8649      2.00000
     29       5.4577      2.00000
     30       5.4577      2.00000
     31       6.3454      2.00005
     32       6.3454      2.00005
     33       6.5623      2.00986
     34       6.7285      2.06890
     35       7.3473     -0.03014
     36       7.7510      0.00000
     37       8.9719      0.00000
     38       9.3400      0.00000
     39       9.3400      0.00000
     40       9.6252      0.00000
     41      10.8497      0.00000
     42      10.8497      0.00000
     43      10.9341      0.00000
     44      11.1726      0.00000

 k-point  19 :       0.4286    0.4286    0.2857
  band No.  band energies     occupation 
      1      -1.2618      2.00000
      2      -0.7027      2.00000
      3      -0.7027      2.00000
      4      -0.2566      2.00000
      5       0.7400      2.00000
      6       1.0905      2.00000
      7       1.0905      2.00000
      8       1.4492      2.00000
      9       2.5399      2.00000
     10       2.5602      2.00000
     11       2.5602      2.00000
     12       2.5752      2.00000
     13       2.6129      2.00000
     14       2.6436      2.00000
     15       2.6436      2.00000
     16       2.6625      2.00000
     17       2.9938      2.00000
     18       3.0165      2.00000
     19       3.0309      2.00000
     20       3.0309      2.00000
     21       3.0452      2.00000
     22       3.0632      2.00000
     23       3.0632      2.00000
     24       3.0701      2.00000
     25       3.1400      2.00000
     26       3.1904      2.00000
     27       3.1904      2.00000
     28       3.4293      2.00000
     29       5.9403      2.00000
     30       6.3536      2.00006
     31       6.3536      2.00006
     32       6.9607      1.24986
     33       7.0520      0.50642
     34       7.1058      0.18225
     35       7.1058      0.18225
     36       7.8778      0.00000
     37       9.2355      0.00000
     38       9.6272      0.00000
     39       9.6272      0.00000
     40      10.0658      0.00000
     41      10.0816      0.00000
     42      10.3369      0.00000
     43      10.3369      0.00000
     44      10.7940      0.00000

 k-point  20 :       0.4286    0.4286    0.4286
  band No.  band energies     occupation 
      1      -0.8788      2.00000
      2      -0.4346      2.00000
      3      -0.4346      2.00000
      4      -0.4346      2.00000
      5       0.6176      2.00000
      6       0.6176      2.00000
      7       0.6176      2.00000
      8       0.9776      2.00000
      9       2.5870      2.00000
     10       2.5870      2.00000
     11       2.5870      2.00000
     12       2.5968      2.00000
     13       2.5968      2.00000
     14       2.6130      2.00000
     15       2.6130      2.00000
     16       2.6130      2.00000
     17       3.0515      2.00000
     18       3.0515      2.00000
     19       3.0515      2.00000
     20       3.0632      2.00000
     21       3.0632      2.00000
     22       3.0730      2.00000
     23       3.0730      2.00000
     24       3.0730      2.00000
     25       3.0749      2.00000
     26       3.0749      2.00000
     27       3.0749      2.00000
     28       3.1696      2.00000
     29       7.1256      0.09846
     30       7.1256      0.09846
     31       7.1256      0.09846
     32       7.3465     -0.03046
     33       7.3465     -0.03046
     34       7.3465     -0.03046
     35       7.6652     -0.00002
     36       7.6652     -0.00002
     37       9.5779      0.00000
     38       9.5779      0.00000
     39       9.5779      0.00000
     40       9.9706      0.00000
     41       9.9706      0.00000
     42      10.2501      0.00000
     43      10.2501      0.00000
     44      10.2501      0.00000


--------------------------------------------------------------------------------------------------------


 soft charge-density along one line, spin component           1
         0         1         2         3         4         5         6         7         8         9
 total charge-density along one line
 
 pseudopotential strength for first ion, spin component:           1
 -4.268   0.000   0.000   0.000   0.000  -3.655   0.000   0.000
  0.000  -4.268   0.000   0.000   0.000   0.000  -3.655   0.000
  0.000   0.000  -4.233   0.000   0.000   0.000   0.000  -3.680
  0.000   0.000   0.000  -4.268   0.000   0.000   0.000   0.000
  0.000   0.000   0.000   0.000  -4.233   0.000   0.000   0.000
 -3.655   0.000   0.000   0.000   0.000   9.506   0.000   0.000
  0.000  -3.655   0.000   0.000   0.000   0.000   9.506   0.000
  0.000   0.000  -3.680   0.000   0.000   0.000   0.000   9.522
  0.000   0.000   0.000  -3.655   0.000   0.000   0.000   0.000
  0.000   0.000   0.000   0.000  -3.680   0.000   0.000   0.000
  0.000   0.000   0.000   0.000   0.000   0.000   0.000   0.000
  0.000   0.000   0.000   0.000   0.000   0.000   0.000   0.000
  0.000   0.000   0.000   0.000   0.000   0.000   0.000   0.000
  0.000   0.000   0.000   0.000   0.000   0.000   0.000   0.000
  0.000   0.000   0.000   0.000   0.000   0.000   0.000   0.000
  0.000   0.000   0.000   0.000   0.000   0.000   0.000   0.000
  0.000   0.000   0.000   0.000   0.000   0.000   0.000   0.000
  0.000   0.000   0.000   0.000   0.000   0.000   0.000   0.000
 total augmentation occupancy for first ion, spin component:           1
  1.897   0.000   0.000   0.000   0.000  -0.001   0.000   0.000   0.000   0.000   0.000   0.000   0.000   0.000   0.000   0.000
  0.000   1.897   0.000   0.000   0.000   0.000  -0.001   0.000   0.000   0.000   0.000   0.000   0.000   0.000   0.000   0.000
  0.000   0.000   1.919   0.000   0.000   0.000   0.000  -0.041   0.000   0.000   0.000   0.000   0.000   0.000   0.000   0.000
  0.000   0.000   0.000   1.897   0.000   0.000   0.000   0.000  -0.001   0.000   0.000   0.000   0.000   0.000   0.000   0.000
  0.000   0.000   0.000   0.000   1.919   0.000   0.000   0.000   0.000  -0.041   0.000   0.000   0.000   0.000   0.000   0.000
 -0.001   0.000   0.000   0.000   0.000   0.012   0.000   0.000   0.000   0.000   0.000   0.000   0.000   0.000   0.000   0.000
  0.000  -0.001   0.000   0.000   0.000   0.000   0.012   0.000   0.000   0.000   0.000   0.000   0.000   0.000   0.000   0.000
  0.000   0.000  -0.041   0.000   0.000   0.000   0.000   0.009   0.000   0.000   0.000   0.000   0.000   0.000   0.000   0.000
  0.000   0.000   0.000  -0.001   0.000   0.000   0.000   0.000   0.012   0.000   0.000   0.000   0.000   0.000   0.000   0.000
  0.000   0.000   0.000   0.000  -0.041   0.000   0.000   0.000   0.000   0.009   0.000   0.000   0.000   0.000   0.000   0.000
  0.000   0.000   0.000   0.000   0.000   0.000   0.000   0.000   0.000   0.000   1.961  -0.144   0.000   0.000   0.000   0.000
  0.000   0.000   0.000   0.000   0.000   0.000   0.000   0.000   0.000   0.000  -0.144   0.021   0.000   0.000   0.000   0.000
  0.000   0.000   0.000   0.000   0.000   0.000   0.000   0.000   0.000   0.000   0.000   0.000   0.331   0.000   0.000  -0.015
  0.000   0.000   0.000   0.000   0.000   0.000   0.000   0.000   0.000   0.000   0.000   0.000   0.000   0.331   0.000   0.000
  0.000   0.000   0.000   0.000   0.000   0.000   0.000   0.000   0.000   0.000   0.000   0.000   0.000   0.000   0.331   0.000
  0.000   0.000   0.000   0.000   0.000   0.000   0.000   0.000   0.000   0.000   0.000   0.000  -0.015   0.000   0.000   0.001
  0.000   0.000   0.000   0.000   0.000   0.000   0.000   0.000   0.000   0.000   0.000   0.000   0.000  -0.015   0.000   0.000
  0.000   0.000   0.000   0.000   0.000   0.000   0.000   0.000   0.000   0.000   0.000   0.000   0.000   0.000  -0.015   0.000


------------------------ aborting loop because EDIFF is reached ----------------------------------------


    CHARGE:  cpu time    0.05: real time    0.06
    FORLOC:  cpu time    0.00: real time    0.00
    FORNL :  cpu time    0.34: real time    0.33
    STRESS:  cpu time    1.01: real time    1.01
    FORCOR:  cpu time    0.02: real time    0.02
    FORHAR:  cpu time    0.01: real time    0.01
    MIXING:  cpu time    0.00: real time    0.00

  FORCE on cell =-STRESS in cart. coord.  units (eV):
  Direction    XX          YY          ZZ          XY          YZ          ZX
  --------------------------------------------------------------------------------------
  Alpha Z    91.18057    91.18057    91.18057
  Ewald   -1270.05222 -1270.05222 -1270.05222     0.00000     0.00000     0.00000
  Hartree   767.56976   767.56976   767.56976     0.00000     0.00000     0.00000
  E(xc)    -325.14964  -325.14964  -325.14964     0.00000     0.00000     0.00000
  Local    -198.36147  -198.36147  -198.36147     0.00000     0.00000     0.00000
  n-local    79.10556    81.33609    83.09756     1.42091    -0.07405     0.47387
  augment   375.21222   375.21222   375.21223     0.00000    -0.00001     0.00001
  Kinetic   467.01396   477.76286   490.39062     3.52059     2.27590     2.38412
  Fock        0.00000     0.00000     0.00000     0.00000     0.00000     0.00000
  -------------------------------------------------------------------------------------
  Total      -0.03189    -0.03189    -0.03189     0.00000     0.00000     0.00000
  in kB      -0.26660    -0.26660    -0.26660     0.00000     0.00000     0.00000
  external pressure =       -0.27 kB  Pullay stress =        0.00 kB


 VOLUME and BASIS-vectors are now :
 -----------------------------------------------------------------------------
  energy-cutoff  :      295.45
  volume of cell :      191.65
      direct lattice vectors                 reciprocal lattice vectors
     5.765482723  0.000000000  0.000000000     0.173446014  0.000000000  0.000000000
     0.000000000  5.765482723  0.000000000     0.000000000  0.173446014  0.000000000
     0.000000000  0.000000000  5.765482723     0.000000000  0.000000000  0.173446014

  length of vectors
     5.765482723  5.765482723  5.765482723     0.173446014  0.173446014  0.173446014


 FORCES acting on ions
    electron-ion (+dipol)            ewald-force                    non-local-force                 convergence-correction
 -----------------------------------------------------------------------------------------------
   -.238E-13 -.196E-13 -.587E-13   -.120E-13 -.533E-14 0.133E-14   -.103E-24 -.103E-23 -.465E-24   0.238E-13 -.955E-14 -.316E-13
   -.238E-13 0.109E-11 0.106E-11   -.191E-13 -.888E-14 -.178E-14   0.621E-24 -.413E-24 -.207E-24   0.365E-13 -.193E-14 0.931E-14
   0.110E-11 -.142E-13 -.331E-11   -.222E-14 -.124E-13 0.533E-14   0.931E-24 0.200E-27 0.414E-24   -.256E-13 0.147E-13 0.293E-13
   0.110E-11 -.322E-11 -.378E-11   -.222E-14 -.160E-13 0.178E-14   0.124E-23 0.724E-24 -.414E-24   0.532E-14 0.428E-13 -.594E-13
   0.185E-14 0.516E-14 -.395E-13   0.113E-13 0.501E-14 -.269E-13   0.121E-16 -.650E-18 0.180E-16   -.116E-13 0.290E-14 0.737E-15
   -.333E-13 -.198E-13 -.813E-13   -.116E-13 -.210E-14 0.157E-13   -.226E-16 0.210E-16 -.130E-16   0.115E-13 0.660E-14 0.405E-14
   -.173E-13 -.345E-13 -.178E-13   0.856E-14 0.868E-14 -.269E-13   -.399E-16 0.627E-16 0.249E-16   -.542E-14 -.642E-14 -.895E-15
   -.105E-13 -.787E-14 -.541E-13   -.103E-13 0.157E-14 0.157E-13   -.174E-17 -.145E-16 -.182E-16   0.539E-14 -.302E-14 0.313E-14
   -.185E-14 -.292E-13 -.815E-13   0.194E-13 0.975E-14 -.158E-13   0.416E-16 -.418E-16 0.208E-16   -.105E-13 -.706E-14 -.300E-14
   -.801E-14 -.435E-14 -.719E-13   -.162E-13 -.239E-14 0.269E-13   0.130E-16 -.434E-18 0.260E-17   0.548E-14 0.686E-14 -.698E-15
   -.210E-13 0.131E-12 -.123E-12   0.172E-13 0.581E-14 -.158E-13   -.347E-17 0.284E-16 0.243E-16   -.551E-14 0.314E-14 -.406E-14
   -.271E-13 -.122E-12 -.135E-13   -.113E-13 0.210E-14 0.269E-13   -.356E-16 -.374E-21 -.139E-16   0.104E-13 -.305E-14 0.943E-15
 -----------------------------------------------------------------------------------------------
   0.203E-11 -.225E-11 -.657E-11   -.285E-13 -.142E-13 0.652E-14   -.364E-16 0.546E-16 0.455E-16   0.398E-13 0.460E-13 -.522E-13
 
 
 POSITION                                       TOTAL-FORCE (eV/Angst)
 -----------------------------------------------------------------------------------
      0.00000      0.00000      0.00000         0.000000      0.000000      0.000000
      0.00000      2.88274      2.88274         0.000000      0.000000      0.000000
      2.88274      0.00000      2.88274         0.000000      0.000000      0.000000
      2.88274      2.88274      0.00000         0.000000      0.000000      0.000000
      1.44137      1.44137      1.44137         0.000000      0.000000      0.000000
      4.32411      1.44137      1.44137         0.000000      0.000000      0.000000
      4.32411      4.32411      1.44137         0.000000      0.000000      0.000000
      1.44137      4.32411      1.44137         0.000000      0.000000      0.000000
      1.44137      4.32411      4.32411         0.000000      0.000000      0.000000
      1.44137      1.44137      4.32411         0.000000      0.000000      0.000000
      4.32411      1.44137      4.32411         0.000000      0.000000      0.000000
      4.32411      4.32411      4.32411         0.000000      0.000000      0.000000
 -----------------------------------------------------------------------------------
    total drift:                                0.000000      0.000000      0.000000


--------------------------------------------------------------------------------------------------------



  FREE ENERGIE OF THE ION-ELECTRON SYSTEM (eV)
  ---------------------------------------------------
  free  energy   TOTEN  =       -46.923960 eV

  energy  without entropy=      -46.908142  energy(sigma->0) =      -46.918687
 
 d Force = 0.0000000E+00[ 0.000E+00, 0.000E+00]  d Energy = 0.4026246E-04-0.403E-04
 d Force = 0.0000000E+00[ 0.000E+00, 0.000E+00]  d Ewald  = 0.6820250E+00-0.682E+00


--------------------------------------------------------------------------------------------------------


    POTLOK:  cpu time    0.03: real time    0.03


--------------------------------------------------------------------------------------------------------




--------------------------------------------------------------------------------------------------------


  
 reached required accuracy - stopping structural energy minimisation
     LOOP+:  cpu time    6.51: real time    6.57
    4ORBIT:  cpu time    0.00: real time    0.00

 total amount of memory used by VASP on root node    43217. kBytes
========================================================================

   base      :      30000. kBytes
   nonlr-proj:       1501. kBytes
   fftplans  :       1025. kBytes
   grid      :       2156. kBytes
   one-center:        186. kBytes
   wavefun   :       8349. kBytes
 
  
  
 General timing and accounting informations for this job:
 ========================================================
  
                  Total CPU time used (sec):       44.400
                            User time (sec):       44.300
                          System time (sec):        0.100
                         Elapsed time (sec):       44.846
  
                   Maximum memory used (kb):       55704.
                   Average memory used (kb):           0.
  
                          Minor page faults:        14438
                          Major page faults:            0
                 Voluntary context switches:          756
