 vasp.5.2.12 11Nov11 complex                                                    
  
 executed on             LinuxIFC date 2014.05.30  10:31:18
 running on    4 nodes
 distr:  one band on    1 nodes,    4 groups


--------------------------------------------------------------------------------------------------------


 INCAR:
 POTCAR:    PAW_PBE Cu 22Jun2005                  
 POTCAR:    PAW_PBE Al 04Jan2001                  
 POTCAR:    PAW_PBE Cu 22Jun2005                  
   VRHFIN =Cu: d10 p1                                                           
   LEXCH  = PE                                                                  
   EATOM  =  1390.9808 eV,  102.2342 Ry                                         
                                                                                
   TITEL  = PAW_PBE Cu 22Jun2005                                                
   LULTRA =        F    use ultrasoft PP ?                                      
   IUNSCR =        1    unscreen: 0-lin 1-nonlin 2-no                           
   RPACOR =    2.000    partial core radius                                     
   POMASS =   63.546; ZVAL   =   11.000    mass and valenz                      
   RCORE  =    2.300    outmost cutoff radius                                   
   RWIGS  =    2.200; RWIGS  =    1.164    wigner-seitz radius (au A)           
   ENMAX  =  295.446; ENMIN  =  221.585 eV                                      
   ICORE  =        3    local potential                                         
   LCOR   =        T    correct aug charges                                     
   LPAW   =        T    paw PP                                                  
   EAUG   =  586.980                                                            
   DEXC   =    0.000                                                            
   RMAX   =    2.344    core radius for proj-oper                               
   RAUG   =    1.300    factor for augmentation sphere                          
   RDEP   =    2.302    radius for radial grids                                 
   RDEPT  =    1.771    core radius for aug-charge                              
                                                                                
   Atomic configuration                                                         
    9 entries                                                                   
     n  l   j            E        occ.                                          
     1  0  0.50     -8850.2468   2.0000                                         
     2  0  0.50     -1062.3498   2.0000                                         
     2  1  1.50      -916.8226   6.0000                                         
     3  0  0.50      -114.6929   2.0000                                         
     3  1  1.50       -72.1325   6.0000                                         
     3  2  2.50        -5.0394  10.0000                                         
     4  0  0.50        -4.6097   1.0000                                         
     4  1  0.50        -4.0817   0.0000                                         
     4  3  2.50        -1.3606   0.0000                                         
   Description                                                                  
     l       E           TYP  RCUT    TYP  RCUT                                 
     2     -5.0393973     23  2.200                                             
     2     10.8846608     23  2.200                                             
     0     -4.6097109     23  2.200                                             
     0      8.2520465     23  2.200                                             
     1     -2.7211652     23  2.200                                             
     1     21.7055443     23  2.200                                             
     3      2.7211652     23  2.300                                             
  local pseudopotential read in
  partial core-charges read in
  partial kinetic energy density read in
  atomic valenz-charges read in
  non local Contribution for L=           2  read in
    real space projection operators read in
  non local Contribution for L=           2  read in
    real space projection operators read in
  non local Contribution for L=           0  read in
    real space projection operators read in
  non local Contribution for L=           0  read in
    real space projection operators read in
  non local Contribution for L=           1  read in
    real space projection operators read in
  non local Contribution for L=           1  read in
    real space projection operators read in
    PAW grid and wavefunctions read in
 
   number of l-projection  operators is LMAX  =           6
   number of lm-projection operators is LMMAX =          18
 
 POTCAR:    PAW_PBE Al 04Jan2001                  
   VRHFIN =Al: s2p1                                                             
   LEXCH  = PE                                                                  
   EATOM  =    53.5387 eV,    3.9350 Ry                                         
                                                                                
   TITEL  = PAW_PBE Al 04Jan2001                                                
   LULTRA =        F    use ultrasoft PP ?                                      
   IUNSCR =        1    unscreen: 0-lin 1-nonlin 2-no                           
   RPACOR =    1.500    partial core radius                                     
   POMASS =   26.981; ZVAL   =    3.000    mass and valenz                      
   RCORE  =    1.900    outmost cutoff radius                                   
   RWIGS  =    2.650; RWIGS  =    1.402    wigner-seitz radius (au A)           
   ENMAX  =  240.300; ENMIN  =  180.225 eV                                      
   ICORE  =        2    local potential                                         
   LCOR   =        T    correct aug charges                                     
   LPAW   =        T    paw PP                                                  
   EAUG   =  291.052                                                            
   DEXC   =    0.000                                                            
   RMAX   =    1.939    core radius for proj-oper                               
   RAUG   =    1.300    factor for augmentation sphere                          
   RDEP   =    1.966    radius for radial grids                                 
   RDEPT  =    1.856    core radius for aug-charge                              
                                                                                
   Atomic configuration                                                         
    6 entries                                                                   
     n  l   j            E        occ.                                          
     1  0  0.50     -1511.1048   2.0000                                         
     2  0  0.50      -108.1629   2.0000                                         
     2  1  1.50       -69.6402   6.0000                                         
     3  0  0.50        -7.7528   2.0000                                         
     3  1  1.50        -2.7121   1.0000                                         
     3  2  2.50        -2.7212   0.0000                                         
   Description                                                                  
     l       E           TYP  RCUT    TYP  RCUT                                 
     0     -7.7528455     23  1.900                                             
     0     -3.3096929     23  1.900                                             
     1     -2.7120682     23  1.900                                             
     1     13.6058260     23  1.900                                             
     2     -2.7211652      7  1.900                                             
  local pseudopotential read in
  partial core-charges read in
  partial kinetic energy density read in
  atomic valenz-charges read in
  non local Contribution for L=           0  read in
    real space projection operators read in
  non local Contribution for L=           0  read in
    real space projection operators read in
  non local Contribution for L=           1  read in
    real space projection operators read in
  non local Contribution for L=           1  read in
    real space projection operators read in
    PAW grid and wavefunctions read in
 
   number of l-projection  operators is LMAX  =           4
   number of lm-projection operators is LMMAX =           8
 
  PAW_PBE Cu 22Jun2005                  :
 energy of atom  1       EATOM=-1390.9808
 kinetic energy error for atom=    0.0452 (will be added to EATOM!!)
  PAW_PBE Al 04Jan2001                  :
 energy of atom  2       EATOM=  -53.5387
 kinetic energy error for atom=    0.0012 (will be added to EATOM!!)
 
 
 POSCAR: XYZ: Cu3Vac1Al2                         
  positions in direct lattice
  velocities in cartesian coordinates
 exchange correlation table for  LEXCH =        8
   RHO(1)=    0.500       N(1)  =     2000
   RHO(2)=  100.500       N(2)  =     4000
 


--------------------------------------------------------------------------------------------------------


 ion  position               nearest neighbor table
   1  0.000  0.000  0.002-   2 2.46   2 2.51   4 2.64   4 2.64   4 2.64   3 2.65   5 2.65   5 2.65
                             3 2.65   3 2.65   5 2.65
   2  0.000  0.000  0.498-   1 2.46   1 2.51   4 2.64   4 2.64   4 2.64   5 2.65   3 2.65   5 2.65
                             3 2.65   3 2.65   5 2.65
   3  0.333  0.667  0.750-   5 2.33   5 2.33   5 2.33   4 2.48   4 2.48   1 2.65   2 2.65   2 2.65
                             1 2.65   2 2.65   1 2.65
   4  0.333  0.667  0.250-   3 2.48   3 2.48   1 2.64   2 2.64   1 2.64   2 2.64   1 2.64   2 2.64

   5  0.667  0.333  0.750-   3 2.33   3 2.33   3 2.33   1 2.65   2 2.65   1 2.65   2 2.65   1 2.65
                             2 2.65
 
  LATTYP: Found a hexagonal cell.
 ALAT       =     4.0419329060
 C/A-ratio  =     1.2285492098
  
  Lattice vectors:
  
 A1 = (   4.0419329060,   0.0000000000,   0.0000000000)
 A2 = (  -2.0209664530,   3.5004165769,   0.0000000000)
 A3 = (   0.0000000000,   0.0000000000,   4.9657134775)
 Subroutine PRICEL returns:
 Original cell was already a primitive cell.
 

Analysis of symmetry for initial positions (statically):

 Routine SETGRP: Setting up the symmetry group for a 
 hexagonal supercell.


 Subroutine GETGRP returns: Found 12 space group operations
 (whereof  6 operations were pure point group operations)
 out of a pool of 24 trial point group operations.


The static configuration has the point symmetry C_3v.
 The point group associated with its full space group is D_3h.

Analysis of symmetry for dynamics (positions and initial velocities):

 Subroutine DYNSYM returns: Found 12 space group operations
 (whereof  6 operations were pure point group operations)
 out of a pool of 12 trial space group operations
 (whereof  6 operations were pure point group operations)
 and found also     1 'primitive' translations


The dynamic configuration has the point symmetry C_3v.
 The point group associated with its full space group is D_3h.
 
 
 KPOINTS: Automatic mesh                          

Automatic generation of k-mesh.
 
 Subroutine IBZKPT returns following result:
 ===========================================
 
 Found     95 irreducible k-points:
 
 Following reciprocal coordinates:
            Coordinates               Weight
  0.000000  0.000000  0.000000      1.000000
  0.083333  0.000000  0.000000      6.000000
  0.166667  0.000000  0.000000      6.000000
  0.250000  0.000000  0.000000      6.000000
  0.333333  0.000000  0.000000      6.000000
  0.416667  0.000000  0.000000      6.000000
  0.500000  0.000000  0.000000      3.000000
  0.083333  0.083333  0.000000      6.000000
  0.166667  0.083333  0.000000     12.000000
  0.250000  0.083333  0.000000     12.000000
  0.333333  0.083333  0.000000     12.000000
  0.416667  0.083333  0.000000     12.000000
  0.166667  0.166667  0.000000      6.000000
  0.250000  0.166667  0.000000     12.000000
  0.333333  0.166667  0.000000     12.000000
  0.416667  0.166667  0.000000      6.000000
  0.250000  0.250000  0.000000      6.000000
  0.333333  0.250000  0.000000     12.000000
  0.333333  0.333333  0.000000      2.000000
  0.000000  0.000000  0.125000      2.000000
  0.083333  0.000000  0.125000     12.000000
  0.166667  0.000000  0.125000     12.000000
  0.250000  0.000000  0.125000     12.000000
  0.333333  0.000000  0.125000     12.000000
  0.416667  0.000000  0.125000     12.000000
  0.500000  0.000000  0.125000      6.000000
  0.083333  0.083333  0.125000     12.000000
  0.166667  0.083333  0.125000     24.000000
  0.250000  0.083333  0.125000     24.000000
  0.333333  0.083333  0.125000     24.000000
  0.416667  0.083333  0.125000     24.000000
  0.166667  0.166667  0.125000     12.000000
  0.250000  0.166667  0.125000     24.000000
  0.333333  0.166667  0.125000     24.000000
  0.416667  0.166667  0.125000     12.000000
  0.250000  0.250000  0.125000     12.000000
  0.333333  0.250000  0.125000     24.000000
  0.333333  0.333333  0.125000      4.000000
  0.000000  0.000000  0.250000      2.000000
  0.083333  0.000000  0.250000     12.000000
  0.166667  0.000000  0.250000     12.000000
  0.250000  0.000000  0.250000     12.000000
  0.333333  0.000000  0.250000     12.000000
  0.416667  0.000000  0.250000     12.000000
  0.500000  0.000000  0.250000      6.000000
  0.083333  0.083333  0.250000     12.000000
  0.166667  0.083333  0.250000     24.000000
  0.250000  0.083333  0.250000     24.000000
  0.333333  0.083333  0.250000     24.000000
  0.416667  0.083333  0.250000     24.000000
  0.166667  0.166667  0.250000     12.000000
  0.250000  0.166667  0.250000     24.000000
  0.333333  0.166667  0.250000     24.000000
  0.416667  0.166667  0.250000     12.000000
  0.250000  0.250000  0.250000     12.000000
  0.333333  0.250000  0.250000     24.000000
  0.333333  0.333333  0.250000      4.000000
  0.000000  0.000000  0.375000      2.000000
  0.083333  0.000000  0.375000     12.000000
  0.166667  0.000000  0.375000     12.000000
  0.250000  0.000000  0.375000     12.000000
  0.333333  0.000000  0.375000     12.000000
  0.416667  0.000000  0.375000     12.000000
  0.500000  0.000000  0.375000      6.000000
  0.083333  0.083333  0.375000     12.000000
  0.166667  0.083333  0.375000     24.000000
  0.250000  0.083333  0.375000     24.000000
  0.333333  0.083333  0.375000     24.000000
  0.416667  0.083333  0.375000     24.000000
  0.166667  0.166667  0.375000     12.000000
  0.250000  0.166667  0.375000     24.000000
  0.333333  0.166667  0.375000     24.000000
  0.416667  0.166667  0.375000     12.000000
  0.250000  0.250000  0.375000     12.000000
  0.333333  0.250000  0.375000     24.000000
  0.333333  0.333333  0.375000      4.000000
  0.000000  0.000000  0.500000      1.000000
  0.083333  0.000000  0.500000      6.000000
  0.166667  0.000000  0.500000      6.000000
  0.250000  0.000000  0.500000      6.000000
  0.333333  0.000000  0.500000      6.000000
  0.416667  0.000000  0.500000      6.000000
  0.500000  0.000000  0.500000      3.000000
  0.083333  0.083333  0.500000      6.000000
  0.166667  0.083333  0.500000     12.000000
  0.250000  0.083333  0.500000     12.000000
  0.333333  0.083333  0.500000     12.000000
  0.416667  0.083333  0.500000     12.000000
  0.166667  0.166667  0.500000      6.000000
  0.250000  0.166667  0.500000     12.000000
  0.333333  0.166667  0.500000     12.000000
  0.416667  0.166667  0.500000      6.000000
  0.250000  0.250000  0.500000      6.000000
  0.333333  0.250000  0.500000     12.000000
  0.333333  0.333333  0.500000      2.000000
 
 Following cartesian coordinates:
            Coordinates               Weight
  0.000000  0.000000  0.000000      1.000000
  0.020617  0.011903  0.000000      6.000000
  0.041234  0.023807  0.000000      6.000000
  0.061852  0.035710  0.000000      6.000000
  0.082469  0.047613  0.000000      6.000000
  0.103086  0.059517  0.000000      6.000000
  0.123703  0.071420  0.000000      3.000000
  0.020617  0.035710  0.000000      6.000000
  0.041234  0.047613  0.000000     12.000000
  0.061852  0.059517  0.000000     12.000000
  0.082469  0.071420  0.000000     12.000000
  0.103086  0.083323  0.000000     12.000000
  0.041234  0.071420  0.000000      6.000000
  0.061852  0.083323  0.000000     12.000000
  0.082469  0.095227  0.000000     12.000000
  0.103086  0.107130  0.000000      6.000000
  0.061852  0.107130  0.000000      6.000000
  0.082469  0.119033  0.000000     12.000000
  0.082469  0.142840  0.000000      2.000000
  0.000000  0.000000  0.025173      2.000000
  0.020617  0.011903  0.025173     12.000000
  0.041234  0.023807  0.025173     12.000000
  0.061852  0.035710  0.025173     12.000000
  0.082469  0.047613  0.025173     12.000000
  0.103086  0.059517  0.025173     12.000000
  0.123703  0.071420  0.025173      6.000000
  0.020617  0.035710  0.025173     12.000000
  0.041234  0.047613  0.025173     24.000000
  0.061852  0.059517  0.025173     24.000000
  0.082469  0.071420  0.025173     24.000000
  0.103086  0.083323  0.025173     24.000000
  0.041234  0.071420  0.025173     12.000000
  0.061852  0.083323  0.025173     24.000000
  0.082469  0.095227  0.025173     24.000000
  0.103086  0.107130  0.025173     12.000000
  0.061852  0.107130  0.025173     12.000000
  0.082469  0.119033  0.025173     24.000000
  0.082469  0.142840  0.025173      4.000000
  0.000000  0.000000  0.050345      2.000000
  0.020617  0.011903  0.050345     12.000000
  0.041234  0.023807  0.050345     12.000000
  0.061852  0.035710  0.050345     12.000000
  0.082469  0.047613  0.050345     12.000000
  0.103086  0.059517  0.050345     12.000000
  0.123703  0.071420  0.050345      6.000000
  0.020617  0.035710  0.050345     12.000000
  0.041234  0.047613  0.050345     24.000000
  0.061852  0.059517  0.050345     24.000000
  0.082469  0.071420  0.050345     24.000000
  0.103086  0.083323  0.050345     24.000000
  0.041234  0.071420  0.050345     12.000000
  0.061852  0.083323  0.050345     24.000000
  0.082469  0.095227  0.050345     24.000000
  0.103086  0.107130  0.050345     12.000000
  0.061852  0.107130  0.050345     12.000000
  0.082469  0.119033  0.050345     24.000000
  0.082469  0.142840  0.050345      4.000000
  0.000000  0.000000  0.075518      2.000000
  0.020617  0.011903  0.075518     12.000000
  0.041234  0.023807  0.075518     12.000000
  0.061852  0.035710  0.075518     12.000000
  0.082469  0.047613  0.075518     12.000000
  0.103086  0.059517  0.075518     12.000000
  0.123703  0.071420  0.075518      6.000000
  0.020617  0.035710  0.075518     12.000000
  0.041234  0.047613  0.075518     24.000000
  0.061852  0.059517  0.075518     24.000000
  0.082469  0.071420  0.075518     24.000000
  0.103086  0.083323  0.075518     24.000000
  0.041234  0.071420  0.075518     12.000000
  0.061852  0.083323  0.075518     24.000000
  0.082469  0.095227  0.075518     24.000000
  0.103086  0.107130  0.075518     12.000000
  0.061852  0.107130  0.075518     12.000000
  0.082469  0.119033  0.075518     24.000000
  0.082469  0.142840  0.075518      4.000000
  0.000000  0.000000  0.100690      1.000000
  0.020617  0.011903  0.100690      6.000000
  0.041234  0.023807  0.100690      6.000000
  0.061852  0.035710  0.100690      6.000000
  0.082469  0.047613  0.100690      6.000000
  0.103086  0.059517  0.100690      6.000000
  0.123703  0.071420  0.100690      3.000000
  0.020617  0.035710  0.100690      6.000000
  0.041234  0.047613  0.100690     12.000000
  0.061852  0.059517  0.100690     12.000000
  0.082469  0.071420  0.100690     12.000000
  0.103086  0.083323  0.100690     12.000000
  0.041234  0.071420  0.100690      6.000000
  0.061852  0.083323  0.100690     12.000000
  0.082469  0.095227  0.100690     12.000000
  0.103086  0.107130  0.100690      6.000000
  0.061852  0.107130  0.100690      6.000000
  0.082469  0.119033  0.100690     12.000000
  0.082469  0.142840  0.100690      2.000000
 


--------------------------------------------------------------------------------------------------------




 Dimension of arrays:
   k-points           NKPTS =     95   k-points in BZ     NKDIM =     95   number of bands    NBANDS=     24
   number of dos      NEDOS =    301   number of ions     NIONS =      5
   non local maximal  LDIM  =      6   non local SUM 2l+1 LMDIM =     18
   total plane-waves  NPLWV =   7776
   max r-space proj   IRMAX =      1   max aug-charges    IRDMAX=   4507
   dimension x,y,z NGX =    18 NGY =   18 NGZ =   24
   dimension x,y,z NGXF=    36 NGYF=   36 NGZF=   48
   support grid    NGXF=    36 NGYF=   36 NGZF=   48
   ions per type =               3   2
 NGX,Y,Z   is equivalent  to a cutoff of   7.40,  7.40,  8.03 a.u.
 NGXF,Y,Z  is equivalent  to a cutoff of  14.81, 14.81, 16.07 a.u.


 I would recommend the setting:
   dimension x,y,z NGX =    17 NGY =   17 NGZ =   21
 SYSTEM =  Al2Cu3                                  
 POSCAR =  XYZ: Cu3Vac1Al2                         

 Startparameter for this run:
   NWRITE =      2    write-flag & timer
   PREC   = normal    normal or accurate (medium, high low for compatibility)
   ISTART =      0    job   : 0-new  1-cont  2-samecut
   ICHARG =      2    charge: 1-file 2-atom 10-const
   ISPIN  =      1    spin polarized calculation?
   LNONCOLLINEAR =      F non collinear calculations
   LSORBIT =      F    spin-orbit coupling
   INIWAV =      1    electr: 0-lowe 1-rand  2-diag
   LASPH  =      F    aspherical Exc in radial PAW
   METAGGA=      F    non-selfconsistent MetaGGA calc.

 Electronic Relaxation 1
   ENCUT  =  295.4 eV  21.71 Ry    4.66 a.u.   5.66  5.66  6.96*2*pi/ulx,y,z
   ENINI  =  295.4     initial cutoff
   ENAUG  =  587.0 eV  augmentation charge cutoff
   NELM   =     40;   NELMIN=  2; NELMDL=  0     # of ELM steps 
   EDIFF  = 0.1E-05   stopping-criterion for ELM
   LREAL  =      F    real-space projection
   NLSPLINE    = F    spline interpolate recip. space projectors
   LCOMPAT=      F    compatible to vasp.4.4
   GGA_COMPAT  = T    GGA compatible to vasp.4.4-vasp.4.6
   LMAXPAW     = -100 max onsite density
   LMAXMIX     =    2 max onsite mixed and CHGCAR
   VOSKOWN=      0    Vosko Wilk Nusair interpolation
   ROPT   =    0.00000   0.00000
 Ionic relaxation
   EDIFFG = 0.1E-04   stopping-criterion for IOM
   NSW    =     10    number of steps for IOM
   NBLOCK =      1;   KBLOCK =     10    inner block; outer block 
   IBRION =      2    ionic relax: 0-MD 1-quasi-New 2-CG
   NFREE  =      1    steps in history (QN), initial steepest desc. (CG)
   ISIF   =      3    stress and relaxation
   IWAVPR =     11    prediction:  0-non 1-charg 2-wave 3-comb
   ISYM   =      2    0-nonsym 1-usesym 2-fastsym
   LCORR  =      T    Harris-Foulkes like correction to forces

   POTIM  = 0.2500    time-step for ionic-motion
   TEIN   =    0.0    initial temperature
   TEBEG  =    0.0;   TEEND  =   0.0 temperature during run
   SMASS  =  -3.00    Nose mass-parameter (am)
   estimated Nose-frequenzy (Omega)   =  0.10E-29 period in steps =****** mass=  -0.373E-27a.u.
   SCALEE = 1.0000    scale energy and forces
   NPACO  =    256;   APACO  = 16.0  distance and # of slots for P.C.
   PSTRESS=    0.0 pullay stress

  Mass of Ions in am
   POMASS =  63.55 26.98
  Ionic Valenz
   ZVAL   =  11.00  3.00
  Atomic Wigner-Seitz radii
   RWIGS  =  -1.00 -1.00
  virtual crystal weights 
   VCA    =   1.00  1.00
   NELECT =      39.0000    total number of electrons
   NUPDOWN=      -1.0000    fix difference up-down

 DOS related values:
   EMIN   =  10.00;   EMAX   =-10.00  energy-range for DOS
   EFERMI =   0.00
   ISMEAR =     1;   SIGMA  =   0.20  broadening in eV -4-tet -1-fermi 0-gaus

 Electronic relaxation 2 (details)
   IALGO  =     68    algorithm
   LDIAG  =      T    sub-space diagonalisation (order eigenvalues)
   LSUBROT=      T    optimize rotation matrix (better conditioning)
   TURBO    =      0    0=normal 1=particle mesh
   IRESTART =      0    0=no restart 2=restart with 2 vectors
   NREBOOT  =      0    no. of reboots
   NMIN     =      0    reboot dimension
   EREF     =   0.00    reference energy to select bands
   IMIX   =      4    mixing-type and parameters
     AMIX     =   0.40;   BMIX     =  1.00
     AMIX_MAG =   1.60;   BMIX_MAG =  1.00
     AMIN     =   0.10
     WC   =   100.;   INIMIX=   1;  MIXPRE=   1

 Intra band minimization:
   WEIMIN = 0.0010     energy-eigenvalue tresh-hold
   EBREAK =  0.10E-07  absolut break condition
   DEPER  =   0.30     relativ break condition  

   TIME   =   0.40     timestep for ELM

  volume/ion in A,a.u.               =      14.05        94.82
  Fermi-wavevector in a.u.,A,eV,Ry     =   1.345446  2.542524 24.629598  1.810224
  Thomas-Fermi vector in A             =   2.473358
 
 Write flags
   LWAVE  =      F    write WAVECAR
   LCHARG =      F    write CHGCAR
   LVTOT  =      F    write LOCPOT, total local potential
   LVHAR  =      F    write LOCPOT, Hartree potential only
   LELF   =      F    write electronic localiz. function (ELF)
   LORBIT =      0    0 simple, 1 ext, 2 COOP (PROOUT)


 Dipole corrections
   LMONO  =      F    monopole corrections only (constant potential shift)
   LDIPOL =      F    correct potential (dipole corrections)
   IDIPOL =      0    1-x, 2-y, 3-z, 4-all directions 
   EPSILON=  1.0000000 bulk dielectric constant

 Exchange correlation treatment:
   GGA     =    --    GGA type
   LEXCH   =     8    internal setting for exchange type
   VOSKOWN=      0    Vosko Wilk Nusair interpolation
   LHFCALC =     F    Hartree Fock is set to
   LHFONE  =     F    Hartree Fock one center treatment
   AEXX    =    0.0000 exact exchange contribution

 Linear response parameters
   LEPSILON=     F    determine dielectric tensor
   LRPA    =     F    only Hartree local field effects (RPA)
   LNABLA  =     F    use nabla operator in PAW spheres
   LVEL    =     F    velocity operator in full k-point grid
   LINTERFAST=   F  fast interpolation
   KINTER  =     0    interpolate to denser k-point grid
   CSHIFT  =0.1000    complex shift for real part using Kramers Kronig
   OMEGAMAX=  -1.0    maximum frequency
   RTIME   =    0.100 relaxation time in fs

 Orbital magnetization related:
   ORBITALMAG=     F  switch on orbital magnetization
   LCHIMAG   =     F  perturbation theory with respect to B field
   DQ        =  0.001000  dq finite difference perturbation B field



--------------------------------------------------------------------------------------------------------


 conjugate gradient relaxation of ions
 charge density and potential will be updated during run
 non-spin polarized calculation
 RMM-DIIS sequential band-by-band and
  variant of blocked Davidson during initial phase
 perform sub-space diagonalisation
    before iterative eigenvector-optimisation
 modified Broyden-mixing scheme, WC =      100.0
 initial mixing is a Kerker type mixing with AMIX =  0.4000 and BMIX =      1.0000
 Hartree-type preconditioning will be used
 using additional bands            4
 reciprocal scheme for non local part
 use partial core corrections
 calculate Harris-corrections to forces 
   (improved forces if not selfconsistent)
 use gradient corrections 
 use of overlap-Matrix (Vanderbilt PP)
 Methfessel and Paxton  Order N= 1 SIGMA  =   0.20


--------------------------------------------------------------------------------------------------------


  energy-cutoff  :      295.45
  volume of cell :       70.26
      direct lattice vectors                 reciprocal lattice vectors
     4.041932906  0.000000000  0.000000000     0.247406383  0.142840142  0.000000000
    -2.020966453  3.500416577  0.000000000     0.000000000  0.285680283  0.000000000
     0.000000000  0.000000000  4.965713478     0.000000000  0.000000000  0.201380930

  length of vectors
     4.041932906  4.041932906  4.965713478     0.285680283  0.285680283  0.201380930


 
 k-points in units of 2pi/SCALE and weight: Automatic mesh                          
   0.00000000  0.00000000  0.00000000       0.001
   0.02061720  0.01190335  0.00000000       0.005
   0.04123440  0.02380669  0.00000000       0.005
   0.06185160  0.03571004  0.00000000       0.005
   0.08246879  0.04761338  0.00000000       0.005
   0.10308599  0.05951673  0.00000000       0.005
   0.12370319  0.07142007  0.00000000       0.003
   0.02061720  0.03571004  0.00000000       0.005
   0.04123440  0.04761338  0.00000000       0.010
   0.06185160  0.05951673  0.00000000       0.010
   0.08246879  0.07142007  0.00000000       0.010
   0.10308599  0.08332342  0.00000000       0.010
   0.04123440  0.07142007  0.00000000       0.005
   0.06185160  0.08332342  0.00000000       0.010
   0.08246879  0.09522676  0.00000000       0.010
   0.10308599  0.10713011  0.00000000       0.005
   0.06185160  0.10713011  0.00000000       0.005
   0.08246879  0.11903345  0.00000000       0.010
   0.08246879  0.14284014  0.00000000       0.002
   0.00000000  0.00000000  0.02517262       0.002
   0.02061720  0.01190335  0.02517262       0.010
   0.04123440  0.02380669  0.02517262       0.010
   0.06185160  0.03571004  0.02517262       0.010
   0.08246879  0.04761338  0.02517262       0.010
   0.10308599  0.05951673  0.02517262       0.010
   0.12370319  0.07142007  0.02517262       0.005
   0.02061720  0.03571004  0.02517262       0.010
   0.04123440  0.04761338  0.02517262       0.021
   0.06185160  0.05951673  0.02517262       0.021
   0.08246879  0.07142007  0.02517262       0.021
   0.10308599  0.08332342  0.02517262       0.021
   0.04123440  0.07142007  0.02517262       0.010
   0.06185160  0.08332342  0.02517262       0.021
   0.08246879  0.09522676  0.02517262       0.021
   0.10308599  0.10713011  0.02517262       0.010
   0.06185160  0.10713011  0.02517262       0.010
   0.08246879  0.11903345  0.02517262       0.021
   0.08246879  0.14284014  0.02517262       0.003
   0.00000000  0.00000000  0.05034523       0.002
   0.02061720  0.01190335  0.05034523       0.010
   0.04123440  0.02380669  0.05034523       0.010
   0.06185160  0.03571004  0.05034523       0.010
   0.08246879  0.04761338  0.05034523       0.010
   0.10308599  0.05951673  0.05034523       0.010
   0.12370319  0.07142007  0.05034523       0.005
   0.02061720  0.03571004  0.05034523       0.010
   0.04123440  0.04761338  0.05034523       0.021
   0.06185160  0.05951673  0.05034523       0.021
   0.08246879  0.07142007  0.05034523       0.021
   0.10308599  0.08332342  0.05034523       0.021
   0.04123440  0.07142007  0.05034523       0.010
   0.06185160  0.08332342  0.05034523       0.021
   0.08246879  0.09522676  0.05034523       0.021
   0.10308599  0.10713011  0.05034523       0.010
   0.06185160  0.10713011  0.05034523       0.010
   0.08246879  0.11903345  0.05034523       0.021
   0.08246879  0.14284014  0.05034523       0.003
   0.00000000  0.00000000  0.07551785       0.002
   0.02061720  0.01190335  0.07551785       0.010
   0.04123440  0.02380669  0.07551785       0.010
   0.06185160  0.03571004  0.07551785       0.010
   0.08246879  0.04761338  0.07551785       0.010
   0.10308599  0.05951673  0.07551785       0.010
   0.12370319  0.07142007  0.07551785       0.005
   0.02061720  0.03571004  0.07551785       0.010
   0.04123440  0.04761338  0.07551785       0.021
   0.06185160  0.05951673  0.07551785       0.021
   0.08246879  0.07142007  0.07551785       0.021
   0.10308599  0.08332342  0.07551785       0.021
   0.04123440  0.07142007  0.07551785       0.010
   0.06185160  0.08332342  0.07551785       0.021
   0.08246879  0.09522676  0.07551785       0.021
   0.10308599  0.10713011  0.07551785       0.010
   0.06185160  0.10713011  0.07551785       0.010
   0.08246879  0.11903345  0.07551785       0.021
   0.08246879  0.14284014  0.07551785       0.003
   0.00000000  0.00000000  0.10069047       0.001
   0.02061720  0.01190335  0.10069047       0.005
   0.04123440  0.02380669  0.10069047       0.005
   0.06185160  0.03571004  0.10069047       0.005
   0.08246879  0.04761338  0.10069047       0.005
   0.10308599  0.05951673  0.10069047       0.005
   0.12370319  0.07142007  0.10069047       0.003
   0.02061720  0.03571004  0.10069047       0.005
   0.04123440  0.04761338  0.10069047       0.010
   0.06185160  0.05951673  0.10069047       0.010
   0.08246879  0.07142007  0.10069047       0.010
   0.10308599  0.08332342  0.10069047       0.010
   0.04123440  0.07142007  0.10069047       0.005
   0.06185160  0.08332342  0.10069047       0.010
   0.08246879  0.09522676  0.10069047       0.010
   0.10308599  0.10713011  0.10069047       0.005
   0.06185160  0.10713011  0.10069047       0.005
   0.08246879  0.11903345  0.10069047       0.010
   0.08246879  0.14284014  0.10069047       0.002
 
 k-points in reciprocal lattice and weights: Automatic mesh                          
   0.00000000  0.00000000  0.00000000       0.001
   0.08333333  0.00000000  0.00000000       0.005
   0.16666667  0.00000000  0.00000000       0.005
   0.25000000  0.00000000  0.00000000       0.005
   0.33333333  0.00000000  0.00000000       0.005
   0.41666667  0.00000000  0.00000000       0.005
   0.50000000  0.00000000  0.00000000       0.003
   0.08333333  0.08333333  0.00000000       0.005
   0.16666667  0.08333333  0.00000000       0.010
   0.25000000  0.08333333  0.00000000       0.010
   0.33333333  0.08333333  0.00000000       0.010
   0.41666667  0.08333333  0.00000000       0.010
   0.16666667  0.16666667  0.00000000       0.005
   0.25000000  0.16666667  0.00000000       0.010
   0.33333333  0.16666667  0.00000000       0.010
   0.41666667  0.16666667  0.00000000       0.005
   0.25000000  0.25000000  0.00000000       0.005
   0.33333333  0.25000000  0.00000000       0.010
   0.33333333  0.33333333  0.00000000       0.002
   0.00000000  0.00000000  0.12500000       0.002
   0.08333333  0.00000000  0.12500000       0.010
   0.16666667  0.00000000  0.12500000       0.010
   0.25000000  0.00000000  0.12500000       0.010
   0.33333333  0.00000000  0.12500000       0.010
   0.41666667  0.00000000  0.12500000       0.010
   0.50000000  0.00000000  0.12500000       0.005
   0.08333333  0.08333333  0.12500000       0.010
   0.16666667  0.08333333  0.12500000       0.021
   0.25000000  0.08333333  0.12500000       0.021
   0.33333333  0.08333333  0.12500000       0.021
   0.41666667  0.08333333  0.12500000       0.021
   0.16666667  0.16666667  0.12500000       0.010
   0.25000000  0.16666667  0.12500000       0.021
   0.33333333  0.16666667  0.12500000       0.021
   0.41666667  0.16666667  0.12500000       0.010
   0.25000000  0.25000000  0.12500000       0.010
   0.33333333  0.25000000  0.12500000       0.021
   0.33333333  0.33333333  0.12500000       0.003
   0.00000000  0.00000000  0.25000000       0.002
   0.08333333  0.00000000  0.25000000       0.010
   0.16666667  0.00000000  0.25000000       0.010
   0.25000000  0.00000000  0.25000000       0.010
   0.33333333  0.00000000  0.25000000       0.010
   0.41666667  0.00000000  0.25000000       0.010
   0.50000000  0.00000000  0.25000000       0.005
   0.08333333  0.08333333  0.25000000       0.010
   0.16666667  0.08333333  0.25000000       0.021
   0.25000000  0.08333333  0.25000000       0.021
   0.33333333  0.08333333  0.25000000       0.021
   0.41666667  0.08333333  0.25000000       0.021
   0.16666667  0.16666667  0.25000000       0.010
   0.25000000  0.16666667  0.25000000       0.021
   0.33333333  0.16666667  0.25000000       0.021
   0.41666667  0.16666667  0.25000000       0.010
   0.25000000  0.25000000  0.25000000       0.010
   0.33333333  0.25000000  0.25000000       0.021
   0.33333333  0.33333333  0.25000000       0.003
   0.00000000  0.00000000  0.37500000       0.002
   0.08333333  0.00000000  0.37500000       0.010
   0.16666667  0.00000000  0.37500000       0.010
   0.25000000  0.00000000  0.37500000       0.010
   0.33333333  0.00000000  0.37500000       0.010
   0.41666667  0.00000000  0.37500000       0.010
   0.50000000  0.00000000  0.37500000       0.005
   0.08333333  0.08333333  0.37500000       0.010
   0.16666667  0.08333333  0.37500000       0.021
   0.25000000  0.08333333  0.37500000       0.021
   0.33333333  0.08333333  0.37500000       0.021
   0.41666667  0.08333333  0.37500000       0.021
   0.16666667  0.16666667  0.37500000       0.010
   0.25000000  0.16666667  0.37500000       0.021
   0.33333333  0.16666667  0.37500000       0.021
   0.41666667  0.16666667  0.37500000       0.010
   0.25000000  0.25000000  0.37500000       0.010
   0.33333333  0.25000000  0.37500000       0.021
   0.33333333  0.33333333  0.37500000       0.003
   0.00000000  0.00000000  0.50000000       0.001
   0.08333333  0.00000000  0.50000000       0.005
   0.16666667  0.00000000  0.50000000       0.005
   0.25000000  0.00000000  0.50000000       0.005
   0.33333333  0.00000000  0.50000000       0.005
   0.41666667  0.00000000  0.50000000       0.005
   0.50000000  0.00000000  0.50000000       0.003
   0.08333333  0.08333333  0.50000000       0.005
   0.16666667  0.08333333  0.50000000       0.010
   0.25000000  0.08333333  0.50000000       0.010
   0.33333333  0.08333333  0.50000000       0.010
   0.41666667  0.08333333  0.50000000       0.010
   0.16666667  0.16666667  0.50000000       0.005
   0.25000000  0.16666667  0.50000000       0.010
   0.33333333  0.16666667  0.50000000       0.010
   0.41666667  0.16666667  0.50000000       0.005
   0.25000000  0.25000000  0.50000000       0.005
   0.33333333  0.25000000  0.50000000       0.010
   0.33333333  0.33333333  0.50000000       0.002
 
 position of ions in fractional coordinates (direct lattice) 
   0.00000000  0.00000000  0.00245516
   0.00000000  0.00000000  0.49754484
   0.33333333  0.66666667  0.75000000
   0.33333333  0.66666667  0.25000000
   0.66666667  0.33333333  0.75000000
 
 position of ions in cartesian coordinates  (Angst):
   0.00000000  0.00000000  0.01219162
   0.00000000  0.00000000  2.47066512
  -0.00000002  2.33361106  3.72428511
  -0.00000002  2.33361106  1.24142837
   2.02096647  1.16680551  3.72428511
 


--------------------------------------------------------------------------------------------------------


 k-point  1 :  0.00000.00000.0000  plane waves:     805
 k-point  2 :  0.08330.00000.0000  plane waves:     799
 k-point  3 :  0.16670.00000.0000  plane waves:     798
 k-point  4 :  0.25000.00000.0000  plane waves:     812
 k-point  5 :  0.33330.00000.0000  plane waves:     812
 k-point  6 :  0.41670.00000.0000  plane waves:     810
 k-point  7 :  0.50000.00000.0000  plane waves:     804
 k-point  8 :  0.08330.08330.0000  plane waves:     797
 k-point  9 :  0.16670.08330.0000  plane waves:     809
 k-point 10 :  0.25000.08330.0000  plane waves:     809
 k-point 11 :  0.33330.08330.0000  plane waves:     809
 k-point 12 :  0.41670.08330.0000  plane waves:     814
 k-point 13 :  0.16670.16670.0000  plane waves:     813
 k-point 14 :  0.25000.16670.0000  plane waves:     810
 k-point 15 :  0.33330.16670.0000  plane waves:     811
 k-point 16 :  0.41670.16670.0000  plane waves:     814
 k-point 17 :  0.25000.25000.0000  plane waves:     806
 k-point 18 :  0.33330.25000.0000  plane waves:     802
 k-point 19 :  0.33330.33330.0000  plane waves:     780
 k-point 20 :  0.00000.00000.1250  plane waves:     806
 k-point 21 :  0.08330.00000.1250  plane waves:     804
 k-point 22 :  0.16670.00000.1250  plane waves:     805
 k-point 23 :  0.25000.00000.1250  plane waves:     810
 k-point 24 :  0.33330.00000.1250  plane waves:     810
 k-point 25 :  0.41670.00000.1250  plane waves:     814
 k-point 26 :  0.50000.00000.1250  plane waves:     816
 k-point 27 :  0.08330.08330.1250  plane waves:     803
 k-point 28 :  0.16670.08330.1250  plane waves:     808
 k-point 29 :  0.25000.08330.1250  plane waves:     809
 k-point 30 :  0.33330.08330.1250  plane waves:     809
 k-point 31 :  0.41670.08330.1250  plane waves:     813
 k-point 32 :  0.16670.16670.1250  plane waves:     808
 k-point 33 :  0.25000.16670.1250  plane waves:     810
 k-point 34 :  0.33330.16670.1250  plane waves:     808
 k-point 35 :  0.41670.16670.1250  plane waves:     808
 k-point 36 :  0.25000.25000.1250  plane waves:     807
 k-point 37 :  0.33330.25000.1250  plane waves:     807
 k-point 38 :  0.33330.33330.1250  plane waves:     798
 k-point 39 :  0.00000.00000.2500  plane waves:     812
 k-point 40 :  0.08330.00000.2500  plane waves:     822
 k-point 41 :  0.16670.00000.2500  plane waves:     815
 k-point 42 :  0.25000.00000.2500  plane waves:     815
 k-point 43 :  0.33330.00000.2500  plane waves:     810
 k-point 44 :  0.41670.00000.2500  plane waves:     815
 k-point 45 :  0.50000.00000.2500  plane waves:     808
 k-point 46 :  0.08330.08330.2500  plane waves:     827
 k-point 47 :  0.16670.08330.2500  plane waves:     814
 k-point 48 :  0.25000.08330.2500  plane waves:     811
 k-point 49 :  0.33330.08330.2500  plane waves:     804
 k-point 50 :  0.41670.08330.2500  plane waves:     808
 k-point 51 :  0.16670.16670.2500  plane waves:     810
 k-point 52 :  0.25000.16670.2500  plane waves:     806
 k-point 53 :  0.33330.16670.2500  plane waves:     806
 k-point 54 :  0.41670.16670.2500  plane waves:     815
 k-point 55 :  0.25000.25000.2500  plane waves:     803
 k-point 56 :  0.33330.25000.2500  plane waves:     810
 k-point 57 :  0.33330.33330.2500  plane waves:     810
 k-point 58 :  0.00000.00000.3750  plane waves:     818
 k-point 59 :  0.08330.00000.3750  plane waves:     821
 k-point 60 :  0.16670.00000.3750  plane waves:     823
 k-point 61 :  0.25000.00000.3750  plane waves:     819
 k-point 62 :  0.33330.00000.3750  plane waves:     804
 k-point 63 :  0.41670.00000.3750  plane waves:     812
 k-point 64 :  0.50000.00000.3750  plane waves:     816
 k-point 65 :  0.08330.08330.3750  plane waves:     822
 k-point 66 :  0.16670.08330.3750  plane waves:     820
 k-point 67 :  0.25000.08330.3750  plane waves:     811
 k-point 68 :  0.33330.08330.3750  plane waves:     806
 k-point 69 :  0.41670.08330.3750  plane waves:     809
 k-point 70 :  0.16670.16670.3750  plane waves:     813
 k-point 71 :  0.25000.16670.3750  plane waves:     802
 k-point 72 :  0.33330.16670.3750  plane waves:     811
 k-point 73 :  0.41670.16670.3750  plane waves:     806
 k-point 74 :  0.25000.25000.3750  plane waves:     805
 k-point 75 :  0.33330.25000.3750  plane waves:     807
 k-point 76 :  0.33330.33330.3750  plane waves:     810
 k-point 77 :  0.00000.00000.5000  plane waves:     818
 k-point 78 :  0.08330.00000.5000  plane waves:     820
 k-point 79 :  0.16670.00000.5000  plane waves:     826
 k-point 80 :  0.25000.00000.5000  plane waves:     820
 k-point 81 :  0.33330.00000.5000  plane waves:     802
 k-point 82 :  0.41670.00000.5000  plane waves:     802
 k-point 83 :  0.50000.00000.5000  plane waves:     800
 k-point 84 :  0.08330.08330.5000  plane waves:     824
 k-point 85 :  0.16670.08330.5000  plane waves:     818
 k-point 86 :  0.25000.08330.5000  plane waves:     810
 k-point 87 :  0.33330.08330.5000  plane waves:     808
 k-point 88 :  0.41670.08330.5000  plane waves:     812
 k-point 89 :  0.16670.16670.5000  plane waves:     806
 k-point 90 :  0.25000.16670.5000  plane waves:     812
 k-point 91 :  0.33330.16670.5000  plane waves:     810
 k-point 92 :  0.41670.16670.5000  plane waves:     810
 k-point 93 :  0.25000.25000.5000  plane waves:     814
 k-point 94 :  0.33330.25000.5000  plane waves:     812
 k-point 95 :  0.33330.33330.5000  plane waves:     804

 maximum and minimum number of plane-waves per node :       827      780

 maximum number of plane-waves:       827
 maximum index in each direction: 
   IXMAX=    5   IYMAX=    5   IZMAX=    6
   IXMIN=   -6   IYMIN=   -5   IZMIN=   -7

 WARNING: aliasing errors must be expected set NGX to  24 to avoid them
 WARNING: aliasing errors must be expected set NGY to  22 to avoid them
 WARNING: aliasing errors must be expected set NGZ to  28 to avoid them
 aliasing errors are usually negligible using standard VASP settings
 and one can safely disregard these warnings

 serial   3D FFT for wavefunctions
 parallel 3D FFT for charge:
    minimum data exchange during FFTs selected (reduces bandwidth)


 total amount of memory used by VASP on root node    62790. kBytes
========================================================================

   base      :      30000. kBytes
   nonl-proj :      22720. kBytes
   fftplans  :        572. kBytes
   grid      :       1213. kBytes
   one-center:         77. kBytes
   wavefun   :       8208. kBytes
 
 Broyden mixing: mesh for mixing (old mesh)
   NGX = 11   NGY = 11   NGZ = 13
  (NGX  = 36   NGY  = 36   NGZ  = 48)
  gives a total of   1573 points

 initial charge density was supplied:
 charge density of overlapping atoms calculated
 number of electron      39.0000000 magnetization 
 keeping initial charge density in first step


--------------------------------------------------------------------------------------------------------


 Maximum index for augmentation-charges         1063 (set IRDMAX)


--------------------------------------------------------------------------------------------------------


 First call to EWALD:  gamma=   0.430
 Maximum number of real-space cells 3x 3x 2
 Maximum number of reciprocal cells 3x 3x 3

    FEWALD:  cpu time    0.00: real time    0.00


----------------------------------------- Iteration    1(   1)  ---------------------------------------


    POTLOK:  cpu time    0.01: real time    0.01
    SETDIJ:  cpu time    0.01: real time    0.00
     EDDAV:  cpu time    1.28: real time    1.29
       DOS:  cpu time    0.00: real time    0.00
    --------------------------------------------
      LOOP:  cpu time    1.31: real time    1.32

 eigenvalue-minimisations  :  4568
 total energy-change (2. order) : 0.2199584E+03  (-0.1191248E+04)
 number of electron      39.0000000 magnetization 
 augmentation part       39.0000000 magnetization 

 Free energy of the ion-electron system (eV)
  ---------------------------------------------------
  alpha Z        PSCENC =       109.47416142
  Ewald energy   TEWEN  =     -2830.39915014
  -1/2 Hartree   DENC   =     -1625.53303751
  -exchange  EXHF       =         0.00000000
  -V(xc)+E(xc)   XCENC  =        85.26663828
  PAW double counting   =      3817.02029389    -4070.63664289
  entropy T*S    EENTRO =        -0.00848445
  eigenvalues    EBANDS =       454.89274165
  atomic energy  EATOM  =      4279.88185056
  ---------------------------------------------------
  free energy    TOTEN  =       219.95837080 eV

  energy without entropy =      219.96685525  energy(sigma->0) =      219.96119895


--------------------------------------------------------------------------------------------------------




----------------------------------------- Iteration    1(   2)  ---------------------------------------


     EDDAV:  cpu time    1.42: real time    1.42
       DOS:  cpu time    0.00: real time    0.00
    --------------------------------------------
      LOOP:  cpu time    1.43: real time    1.43

 eigenvalue-minimisations  :  4560
 total energy-change (2. order) :-0.2325359E+03  (-0.2262191E+03)
 number of electron      39.0000000 magnetization 
 augmentation part       39.0000000 magnetization 

 Free energy of the ion-electron system (eV)
  ---------------------------------------------------
  alpha Z        PSCENC =       109.47416142
  Ewald energy   TEWEN  =     -2830.39915014
  -1/2 Hartree   DENC   =     -1625.53303751
  -exchange  EXHF       =         0.00000000
  -V(xc)+E(xc)   XCENC  =        85.26663828
  PAW double counting   =      3817.02029389    -4070.63664289
  entropy T*S    EENTRO =         0.00380945
  eigenvalues    EBANDS =       222.34457405
  atomic energy  EATOM  =      4279.88185056
  ---------------------------------------------------
  free energy    TOTEN  =       -12.57750290 eV

  energy without entropy =      -12.58131234  energy(sigma->0) =      -12.57877271


--------------------------------------------------------------------------------------------------------




----------------------------------------- Iteration    1(   3)  ---------------------------------------


     EDDAV:  cpu time    1.81: real time    1.82
       DOS:  cpu time    0.00: real time    0.00
    --------------------------------------------
      LOOP:  cpu time    1.81: real time    1.83

 eigenvalue-minimisations  :  5888
 total energy-change (2. order) :-0.1152850E+02  (-0.1132843E+02)
 number of electron      39.0000000 magnetization 
 augmentation part       39.0000000 magnetization 

 Free energy of the ion-electron system (eV)
  ---------------------------------------------------
  alpha Z        PSCENC =       109.47416142
  Ewald energy   TEWEN  =     -2830.39915014
  -1/2 Hartree   DENC   =     -1625.53303751
  -exchange  EXHF       =         0.00000000
  -V(xc)+E(xc)   XCENC  =        85.26663828
  PAW double counting   =      3817.02029389    -4070.63664289
  entropy T*S    EENTRO =        -0.00212433
  eigenvalues    EBANDS =       210.82200649
  atomic energy  EATOM  =      4279.88185056
  ---------------------------------------------------
  free energy    TOTEN  =       -24.10600423 eV

  energy without entropy =      -24.10387990  energy(sigma->0) =      -24.10529612


--------------------------------------------------------------------------------------------------------




----------------------------------------- Iteration    1(   4)  ---------------------------------------


     EDDAV:  cpu time    2.02: real time    2.03
       DOS:  cpu time    0.00: real time    0.00
    --------------------------------------------
      LOOP:  cpu time    2.03: real time    2.04

 eigenvalue-minimisations  :  6720
 total energy-change (2. order) :-0.2152910E+00  (-0.2151232E+00)
 number of electron      39.0000000 magnetization 
 augmentation part       39.0000000 magnetization 

 Free energy of the ion-electron system (eV)
  ---------------------------------------------------
  alpha Z        PSCENC =       109.47416142
  Ewald energy   TEWEN  =     -2830.39915014
  -1/2 Hartree   DENC   =     -1625.53303751
  -exchange  EXHF       =         0.00000000
  -V(xc)+E(xc)   XCENC  =        85.26663828
  PAW double counting   =      3817.02029389    -4070.63664289
  entropy T*S    EENTRO =        -0.00214057
  eigenvalues    EBANDS =       210.60673170
  atomic energy  EATOM  =      4279.88185056
  ---------------------------------------------------
  free energy    TOTEN  =       -24.32129527 eV

  energy without entropy =      -24.31915469  energy(sigma->0) =      -24.32058174


--------------------------------------------------------------------------------------------------------




----------------------------------------- Iteration    1(   5)  ---------------------------------------


     EDDAV:  cpu time    2.18: real time    2.20
       DOS:  cpu time    0.01: real time    0.00
    CHARGE:  cpu time    0.07: real time    0.08
    MIXING:  cpu time    0.00: real time    0.00
    --------------------------------------------
      LOOP:  cpu time    2.27: real time    2.28

 eigenvalue-minimisations  :  7312
 total energy-change (2. order) :-0.2912775E-02  (-0.2912630E-02)
 number of electron      38.9999802 magnetization 
 augmentation part       18.3868513 magnetization 

 Broyden mixing:
  rms(total) = 0.19497E+01    rms(broyden)= 0.19495E+01
  rms(prec ) = 0.37300E+01
  weight for this iteration     100.00

 Free energy of the ion-electron system (eV)
  ---------------------------------------------------
  alpha Z        PSCENC =       109.47416142
  Ewald energy   TEWEN  =     -2830.39915014
  -1/2 Hartree   DENC   =     -1625.53303751
  -exchange  EXHF       =         0.00000000
  -V(xc)+E(xc)   XCENC  =        85.26663828
  PAW double counting   =      3817.02029389    -4070.63664289
  entropy T*S    EENTRO =        -0.00214129
  eigenvalues    EBANDS =       210.60381964
  atomic energy  EATOM  =      4279.88185056
  ---------------------------------------------------
  free energy    TOTEN  =       -24.32420804 eV

  energy without entropy =      -24.32206675  energy(sigma->0) =      -24.32349428


--------------------------------------------------------------------------------------------------------




----------------------------------------- Iteration    1(   6)  ---------------------------------------


    POTLOK:  cpu time    0.01: real time    0.01
    SETDIJ:  cpu time    0.00: real time    0.00
    EDDIAG:  cpu time    0.26: real time    0.26
  RMM-DIIS:  cpu time    0.92: real time    0.92
    ORTHCH:  cpu time    0.04: real time    0.04
       DOS:  cpu time    0.01: real time    0.00
    CHARGE:  cpu time    0.08: real time    0.08
    MIXING:  cpu time    0.00: real time    0.00
    --------------------------------------------
      LOOP:  cpu time    1.33: real time    1.33

 eigenvalue-minimisations  :  4560
 total energy-change (2. order) :-0.8909586E+00  (-0.9766966E+01)
 number of electron      38.9999753 magnetization 
 augmentation part       22.7672096 magnetization 

 Broyden mixing:
  rms(total) = 0.14542E+01    rms(broyden)= 0.14539E+01
  rms(prec ) = 0.27528E+01
  weight for this iteration     100.00

 eigenvalues of (default mixing * dielectric matrix)
  average eigenvalue GAMMA=   0.5741
  0.5741

 Free energy of the ion-electron system (eV)
  ---------------------------------------------------
  alpha Z        PSCENC =       109.47416142
  Ewald energy   TEWEN  =     -2830.39915014
  -1/2 Hartree   DENC   =     -1482.05895199
  -exchange  EXHF       =         0.00000000
  -V(xc)+E(xc)   XCENC  =        79.19496858
  PAW double counting   =      3892.70124786    -4118.36570794
  entropy T*S    EENTRO =        -0.00111078
  eigenvalues    EBANDS =        44.35752581
  atomic energy  EATOM  =      4279.88185056
  ---------------------------------------------------
  free energy    TOTEN  =       -25.21516662 eV

  energy without entropy =      -25.21405584  energy(sigma->0) =      -25.21479636


--------------------------------------------------------------------------------------------------------




----------------------------------------- Iteration    1(   7)  ---------------------------------------


    POTLOK:  cpu time    0.01: real time    0.01
    SETDIJ:  cpu time    0.01: real time    0.00
    EDDIAG:  cpu time    0.25: real time    0.26
  RMM-DIIS:  cpu time    0.93: real time    0.92
    ORTHCH:  cpu time    0.04: real time    0.05
       DOS:  cpu time    0.00: real time    0.00
    CHARGE:  cpu time    0.08: real time    0.08
    MIXING:  cpu time    0.00: real time    0.00
    --------------------------------------------
      LOOP:  cpu time    1.32: real time    1.33

 eigenvalue-minimisations  :  4561
 total energy-change (2. order) : 0.5693477E+01  (-0.2091458E+01)
 number of electron      38.9999773 magnetization 
 augmentation part       20.9840726 magnetization 

 Broyden mixing:
  rms(total) = 0.15488E+00    rms(broyden)= 0.15447E+00
  rms(prec ) = 0.35392E+00
  weight for this iteration     100.00

 eigenvalues of (default mixing * dielectric matrix)
  average eigenvalue GAMMA=   1.0703
  0.5925  1.5480

 Free energy of the ion-electron system (eV)
  ---------------------------------------------------
  alpha Z        PSCENC =       109.47416142
  Ewald energy   TEWEN  =     -2830.39915014
  -1/2 Hartree   DENC   =     -1542.60872156
  -exchange  EXHF       =         0.00000000
  -V(xc)+E(xc)   XCENC  =        81.77826175
  PAW double counting   =      4061.49896204    -4312.11792536
  entropy T*S    EENTRO =         0.00260653
  eigenvalues    EBANDS =       132.96826535
  atomic energy  EATOM  =      4279.88185056
  ---------------------------------------------------
  free energy    TOTEN  =       -19.52168940 eV

  energy without entropy =      -19.52429593  energy(sigma->0) =      -19.52255824


--------------------------------------------------------------------------------------------------------




----------------------------------------- Iteration    1(   8)  ---------------------------------------


    POTLOK:  cpu time    0.02: real time    0.01
    SETDIJ:  cpu time    0.00: real time    0.00
    EDDIAG:  cpu time    0.26: real time    0.26
  RMM-DIIS:  cpu time    0.92: real time    0.92
    ORTHCH:  cpu time    0.04: real time    0.05
       DOS:  cpu time    0.00: real time    0.00
    CHARGE:  cpu time    0.08: real time    0.08
    MIXING:  cpu time    0.00: real time    0.00
    --------------------------------------------
      LOOP:  cpu time    1.32: real time    1.33

 eigenvalue-minimisations  :  4604
 total energy-change (2. order) : 0.3141543E-01  (-0.1493987E+00)
 number of electron      38.9999777 magnetization 
 augmentation part       20.6269450 magnetization 

 Broyden mixing:
  rms(total) = 0.17864E+00    rms(broyden)= 0.17857E+00
  rms(prec ) = 0.33226E+00
  weight for this iteration     100.00

 eigenvalues of (default mixing * dielectric matrix)
  average eigenvalue GAMMA=   1.0982
  1.8655  0.7146  0.7146

 Free energy of the ion-electron system (eV)
  ---------------------------------------------------
  alpha Z        PSCENC =       109.47416142
  Ewald energy   TEWEN  =     -2830.39915014
  -1/2 Hartree   DENC   =     -1550.78332108
  -exchange  EXHF       =         0.00000000
  -V(xc)+E(xc)   XCENC  =        82.01948818
  PAW double counting   =      4247.90336050    -4507.02100852
  entropy T*S    EENTRO =         0.00337714
  eigenvalues    EBANDS =       149.43096798
  atomic energy  EATOM  =      4279.88185056
  ---------------------------------------------------
  free energy    TOTEN  =       -19.49027397 eV

  energy without entropy =      -19.49365110  energy(sigma->0) =      -19.49139968


--------------------------------------------------------------------------------------------------------




----------------------------------------- Iteration    1(   9)  ---------------------------------------


    POTLOK:  cpu time    0.01: real time    0.01
    SETDIJ:  cpu time    0.00: real time    0.00
    EDDIAG:  cpu time    0.26: real time    0.26
  RMM-DIIS:  cpu time    0.92: real time    0.93
    ORTHCH:  cpu time    0.04: real time    0.05
       DOS:  cpu time    0.01: real time    0.00
    CHARGE:  cpu time    0.08: real time    0.08
    MIXING:  cpu time    0.00: real time    0.00
    --------------------------------------------
      LOOP:  cpu time    1.33: real time    1.33

 eigenvalue-minimisations  :  4595
 total energy-change (2. order) : 0.4007403E-01  (-0.1682490E-01)
 number of electron      38.9999775 magnetization 
 augmentation part       20.8055513 magnetization 

 Broyden mixing:
  rms(total) = 0.65882E-01    rms(broyden)= 0.65873E-01
  rms(prec ) = 0.13432E+00
  weight for this iteration     100.00

 eigenvalues of (default mixing * dielectric matrix)
  average eigenvalue GAMMA=   1.0222
  2.1908  0.7185  0.7185  0.4611

 Free energy of the ion-electron system (eV)
  ---------------------------------------------------
  alpha Z        PSCENC =       109.47416142
  Ewald energy   TEWEN  =     -2830.39915014
  -1/2 Hartree   DENC   =     -1543.29028764
  -exchange  EXHF       =         0.00000000
  -V(xc)+E(xc)   XCENC  =        81.68453793
  PAW double counting   =      4330.10528119    -4589.90101930
  entropy T*S    EENTRO =         0.00280400
  eigenvalues    EBANDS =       142.99162205
  atomic energy  EATOM  =      4279.88185056
  ---------------------------------------------------
  free energy    TOTEN  =       -19.45019994 eV

  energy without entropy =      -19.45300394  energy(sigma->0) =      -19.45113461


--------------------------------------------------------------------------------------------------------




----------------------------------------- Iteration    1(  10)  ---------------------------------------


    POTLOK:  cpu time    0.01: real time    0.01
    SETDIJ:  cpu time    0.01: real time    0.00
    EDDIAG:  cpu time    0.26: real time    0.26
  RMM-DIIS:  cpu time    0.94: real time    0.95
    ORTHCH:  cpu time    0.04: real time    0.05
       DOS:  cpu time    0.00: real time    0.00
    CHARGE:  cpu time    0.08: real time    0.08
    MIXING:  cpu time    0.00: real time    0.00
    --------------------------------------------
      LOOP:  cpu time    1.34: real time    1.35

 eigenvalue-minimisations  :  4655
 total energy-change (2. order) : 0.6600650E-02  (-0.2550912E-02)
 number of electron      38.9999775 magnetization 
 augmentation part       20.8088567 magnetization 

 Broyden mixing:
  rms(total) = 0.16028E-01    rms(broyden)= 0.16013E-01
  rms(prec ) = 0.32675E-01
  weight for this iteration     100.00

 eigenvalues of (default mixing * dielectric matrix)
  average eigenvalue GAMMA=   1.3049
  2.2806  2.2806  0.8708  0.6684  0.4240

 Free energy of the ion-electron system (eV)
  ---------------------------------------------------
  alpha Z        PSCENC =       109.47416142
  Ewald energy   TEWEN  =     -2830.39915014
  -1/2 Hartree   DENC   =     -1542.52757318
  -exchange  EXHF       =         0.00000000
  -V(xc)+E(xc)   XCENC  =        81.65154983
  PAW double counting   =      4356.35208272    -4616.71201973
  entropy T*S    EENTRO =         0.00293965
  eigenvalues    EBANDS =       142.83255958
  atomic energy  EATOM  =      4279.88185056
  ---------------------------------------------------
  free energy    TOTEN  =       -19.44359929 eV

  energy without entropy =      -19.44653894  energy(sigma->0) =      -19.44457917


--------------------------------------------------------------------------------------------------------




----------------------------------------- Iteration    1(  11)  ---------------------------------------


    POTLOK:  cpu time    0.02: real time    0.01
    SETDIJ:  cpu time    0.00: real time    0.00
    EDDIAG:  cpu time    0.26: real time    0.26
  RMM-DIIS:  cpu time    0.99: real time    1.00
    ORTHCH:  cpu time    0.04: real time    0.04
       DOS:  cpu time    0.01: real time    0.00
    CHARGE:  cpu time    0.07: real time    0.08
    MIXING:  cpu time    0.00: real time    0.00
    --------------------------------------------
      LOOP:  cpu time    1.39: real time    1.40

 eigenvalue-minimisations  :  4902
 total energy-change (2. order) : 0.1891286E-03  (-0.4068966E-03)
 number of electron      38.9999775 magnetization 
 augmentation part       20.8182088 magnetization 

 Broyden mixing:
  rms(total) = 0.71231E-02    rms(broyden)= 0.71108E-02
  rms(prec ) = 0.15900E-01
  weight for this iteration     100.00

 eigenvalues of (default mixing * dielectric matrix)
  average eigenvalue GAMMA=   1.2599
  2.3365  2.3365  0.4322  0.6703  0.9317  0.8519

 Free energy of the ion-electron system (eV)
  ---------------------------------------------------
  alpha Z        PSCENC =       109.47416142
  Ewald energy   TEWEN  =     -2830.39915014
  -1/2 Hartree   DENC   =     -1541.93238060
  -exchange  EXHF       =         0.00000000
  -V(xc)+E(xc)   XCENC  =        81.65772951
  PAW double counting   =      4360.64919161    -4620.97793663
  entropy T*S    EENTRO =         0.00292365
  eigenvalues    EBANDS =       142.20020047
  atomic energy  EATOM  =      4279.88185056
  ---------------------------------------------------
  free energy    TOTEN  =       -19.44341016 eV

  energy without entropy =      -19.44633381  energy(sigma->0) =      -19.44438471


--------------------------------------------------------------------------------------------------------




----------------------------------------- Iteration    1(  12)  ---------------------------------------


    POTLOK:  cpu time    0.02: real time    0.01
    SETDIJ:  cpu time    0.00: real time    0.00
    EDDIAG:  cpu time    0.26: real time    0.26
  RMM-DIIS:  cpu time    1.01: real time    1.01
    ORTHCH:  cpu time    0.04: real time    0.05
       DOS:  cpu time    0.00: real time    0.00
    CHARGE:  cpu time    0.08: real time    0.08
    MIXING:  cpu time    0.00: real time    0.00
    --------------------------------------------
      LOOP:  cpu time    1.41: real time    1.42

 eigenvalue-minimisations  :  4970
 total energy-change (2. order) : 0.9324873E-04  (-0.3176461E-04)
 number of electron      38.9999775 magnetization 
 augmentation part       20.8197268 magnetization 

 Broyden mixing:
  rms(total) = 0.43342E-02    rms(broyden)= 0.43207E-02
  rms(prec ) = 0.74761E-02
  weight for this iteration     100.00

 eigenvalues of (default mixing * dielectric matrix)
  average eigenvalue GAMMA=   1.3854
  2.6728  2.6728  0.4322  0.6706  0.8438  1.0764  1.3291

 Free energy of the ion-electron system (eV)
  ---------------------------------------------------
  alpha Z        PSCENC =       109.47416142
  Ewald energy   TEWEN  =     -2830.39915014
  -1/2 Hartree   DENC   =     -1541.91270110
  -exchange  EXHF       =         0.00000000
  -V(xc)+E(xc)   XCENC  =        81.65400429
  PAW double counting   =      4363.43924729    -4623.81905573
  entropy T*S    EENTRO =         0.00290981
  eigenvalues    EBANDS =       142.23541669
  atomic energy  EATOM  =      4279.88185056
  ---------------------------------------------------
  free energy    TOTEN  =       -19.44331691 eV

  energy without entropy =      -19.44622673  energy(sigma->0) =      -19.44428685


--------------------------------------------------------------------------------------------------------




----------------------------------------- Iteration    1(  13)  ---------------------------------------


    POTLOK:  cpu time    0.02: real time    0.01
    SETDIJ:  cpu time    0.00: real time    0.00
    EDDIAG:  cpu time    0.26: real time    0.26
  RMM-DIIS:  cpu time    0.92: real time    0.92
    ORTHCH:  cpu time    0.04: real time    0.05
       DOS:  cpu time    0.00: real time    0.00
    CHARGE:  cpu time    0.08: real time    0.08
    MIXING:  cpu time    0.00: real time    0.00
    --------------------------------------------
      LOOP:  cpu time    1.32: real time    1.33

 eigenvalue-minimisations  :  4590
 total energy-change (2. order) : 0.1307528E-04  (-0.2219068E-04)
 number of electron      38.9999775 magnetization 
 augmentation part       20.8230829 magnetization 

 Broyden mixing:
  rms(total) = 0.19157E-02    rms(broyden)= 0.18846E-02
  rms(prec ) = 0.41908E-02
  weight for this iteration     100.00

 eigenvalues of (default mixing * dielectric matrix)
  average eigenvalue GAMMA=   1.3220
  2.6521  2.2944  1.3505  1.3505  0.4317  0.6700  0.8792  0.9478

 Free energy of the ion-electron system (eV)
  ---------------------------------------------------
  alpha Z        PSCENC =       109.47416142
  Ewald energy   TEWEN  =     -2830.39915014
  -1/2 Hartree   DENC   =     -1541.87290477
  -exchange  EXHF       =         0.00000000
  -V(xc)+E(xc)   XCENC  =        81.65844735
  PAW double counting   =      4359.55144920    -4619.81002770
  entropy T*S    EENTRO =         0.00288681
  eigenvalues    EBANDS =       142.06998344
  atomic energy  EATOM  =      4279.88185056
  ---------------------------------------------------
  free energy    TOTEN  =       -19.44330384 eV

  energy without entropy =      -19.44619065  energy(sigma->0) =      -19.44426611


--------------------------------------------------------------------------------------------------------




----------------------------------------- Iteration    1(  14)  ---------------------------------------


    POTLOK:  cpu time    0.01: real time    0.01
    SETDIJ:  cpu time    0.00: real time    0.00
    EDDIAG:  cpu time    0.26: real time    0.26
  RMM-DIIS:  cpu time    0.93: real time    0.93
    ORTHCH:  cpu time    0.04: real time    0.04
       DOS:  cpu time    0.01: real time    0.00
    CHARGE:  cpu time    0.07: real time    0.08
    MIXING:  cpu time    0.00: real time    0.00
    --------------------------------------------
      LOOP:  cpu time    1.33: real time    1.34

 eigenvalue-minimisations  :  4622
 total energy-change (2. order) : 0.5756163E-05  (-0.3793426E-05)
 number of electron      38.9999775 magnetization 
 augmentation part       20.8242721 magnetization 

 Broyden mixing:
  rms(total) = 0.93219E-03    rms(broyden)= 0.86782E-03
  rms(prec ) = 0.17871E-02
  weight for this iteration     100.00

 eigenvalues of (default mixing * dielectric matrix)
  average eigenvalue GAMMA=   1.2649
  2.6906  2.2928  1.4833  1.4833  0.9049  0.9049  0.6679  0.4315  0.5249

 Free energy of the ion-electron system (eV)
  ---------------------------------------------------
  alpha Z        PSCENC =       109.47416142
  Ewald energy   TEWEN  =     -2830.39915014
  -1/2 Hartree   DENC   =     -1541.82029517
  -exchange  EXHF       =         0.00000000
  -V(xc)+E(xc)   XCENC  =        81.65589376
  PAW double counting   =      4360.36788740    -4620.63691507
  entropy T*S    EENTRO =         0.00289101
  eigenvalues    EBANDS =       142.03037816
  atomic energy  EATOM  =      4279.88185056
  ---------------------------------------------------
  free energy    TOTEN  =       -19.44329808 eV

  energy without entropy =      -19.44618909  energy(sigma->0) =      -19.44426175


--------------------------------------------------------------------------------------------------------




----------------------------------------- Iteration    1(  15)  ---------------------------------------


    POTLOK:  cpu time    0.01: real time    0.01
    SETDIJ:  cpu time    0.00: real time    0.00
    EDDIAG:  cpu time    0.26: real time    0.26
  RMM-DIIS:  cpu time    0.76: real time    0.75
    ORTHCH:  cpu time    0.04: real time    0.05
       DOS:  cpu time    0.00: real time    0.00
    --------------------------------------------
      LOOP:  cpu time    1.08: real time    1.09

 eigenvalue-minimisations  :  3563
 total energy-change (2. order) : 0.4671092E-06  (-0.4474226E-06)
 number of electron      38.9999775 magnetization 
 augmentation part       20.8242721 magnetization 

 Free energy of the ion-electron system (eV)
  ---------------------------------------------------
  alpha Z        PSCENC =       109.47416142
  Ewald energy   TEWEN  =     -2830.39915014
  -1/2 Hartree   DENC   =     -1541.83365970
  -exchange  EXHF       =         0.00000000
  -V(xc)+E(xc)   XCENC  =        81.65628877
  PAW double counting   =      4360.17339950    -4620.44132672
  entropy T*S    EENTRO =         0.00289200
  eigenvalues    EBANDS =       142.04224671
  atomic energy  EATOM  =      4279.88185056
  ---------------------------------------------------
  free energy    TOTEN  =       -19.44329761 eV

  energy without entropy =      -19.44618961  energy(sigma->0) =      -19.44426161


--------------------------------------------------------------------------------------------------------




 average (electrostatic) potential at core
  the test charge radii are     0.9430  1.0406
  (the norm of the test charge is              1.0000)
       1 -64.3217       2 -64.3217       3 -64.9935       4 -73.0272       5 -72.9634
 
 
 
 E-fermi :   7.3444     XC(G=0): -11.2807     alpha+bet :-13.7573


 k-point   1 :       0.0000    0.0000    0.0000
  band No.  band energies     occupation 
      1      -2.7563      2.00000
      2       2.0182      2.00000
      3       2.5017      2.00000
      4       2.5017      2.00000
      5       2.5834      2.00000
      6       3.1046      2.00000
      7       3.1047      2.00000
      8       3.2471      2.00000
      9       3.6068      2.00000
     10       3.6069      2.00000
     11       4.0099      2.00000
     12       4.0100      2.00000
     13       4.5381      2.00000
     14       4.5382      2.00000
     15       4.9022      2.00000
     16       4.9022      2.00000
     17       4.9848      2.00000
     18       6.3682      2.00000
     19       9.1127      0.00000
     20       9.1127      0.00000
     21      10.5492      0.00000
     22      10.5492      0.00000
     23      11.3898      0.00000
     24      12.7963      0.00000

 k-point   2 :       0.0833    0.0000    0.0000
  band No.  band energies     occupation 
      1      -2.6704      2.00000
      2       1.9992      2.00000
      3       2.5023      2.00000
      4       2.5306      2.00000
      5       2.6027      2.00000
      6       3.1157      2.00000
      7       3.1558      2.00000
      8       3.2694      2.00000
      9       3.5656      2.00000
     10       3.6193      2.00000
     11       3.9988      2.00000
     12       3.9995      2.00000
     13       4.5293      2.00000
     14       4.5317      2.00000
     15       4.8974      2.00000
     16       4.9019      2.00000
     17       5.0285      2.00000
     18       6.3608      2.00000
     19       8.2411      0.00000
     20       8.6136      0.00000
     21      10.3517      0.00000
     22      11.1278      0.00000
     23      12.1722      0.00000
     24      13.4245      0.00000

 k-point   3 :       0.1667    0.0000    0.0000
  band No.  band energies     occupation 
      1      -2.4140      2.00000
      2       1.9454      2.00000
      3       2.4900      2.00000
      4       2.6129      2.00000
      5       2.6497      2.00000
      6       3.1454      2.00000
      7       3.2862      2.00000
      8       3.3105      2.00000
      9       3.4800      2.00000
     10       3.6463      2.00000
     11       3.9716      2.00000
     12       3.9775      2.00000
     13       4.5063      2.00000
     14       4.5135      2.00000
     15       4.8837      2.00000
     16       4.8993      2.00000
     17       5.1614      2.00000
     18       6.3396      2.00000
     19       6.8887      2.00587
     20       7.8242     -0.00359
     21      10.0066      0.00000
     22      12.0999      0.00000
     23      12.3971      0.00000
     24      12.5261      0.00000

 k-point   4 :       0.2500    0.0000    0.0000
  band No.  band energies     occupation 
      1      -1.9924      2.00000
      2       1.8480      2.00000
      3       2.4152      2.00000
      4       2.7040      2.00000
      5       2.7388      2.00000
      6       3.1285      2.00000
      7       3.1872      2.00000
      8       3.4957      2.00000
      9       3.5515      2.00000
     10       3.6502      2.00000
     11       3.9330      2.00000
     12       3.9888      2.00000
     13       4.4865      2.00000
     14       4.4913      2.00000
     15       4.8664      2.00000
     16       4.8944      2.00000
     17       5.3616      2.00000
     18       5.7615      2.00000
     19       6.3061      2.00000
     20       7.0839      2.06925
     21       9.6972      0.00000
     22      11.1441      0.00000
     23      11.4649      0.00000
     24      12.7908      0.00000

 k-point   5 :       0.3333    0.0000    0.0000
  band No.  band energies     occupation 
      1      -1.4161      2.00000
      2       1.6131      2.00000
      3       2.1976      2.00000
      4       2.7536      2.00000
      5       2.8919      2.00000
      6       2.9387      2.00000
      7       3.2320      2.00000
      8       3.5498      2.00000
      9       3.5904      2.00000
     10       3.8018      2.00000
     11       3.8866      2.00000
     12       4.0774      2.00000
     13       4.4582      2.00000
     14       4.5382      2.00000
     15       4.8569      2.00000
     16       4.8890      2.00000
     17       4.9295      2.00000
     18       5.7686      2.00000
     19       6.2600      2.00000
     20       6.4595      2.00000
     21       9.4238      0.00000
     22      10.0548      0.00000
     23      10.4822      0.00000
     24      12.9014      0.00000

 k-point   6 :       0.4167    0.0000    0.0000
  band No.  band energies     occupation 
      1      -0.7102      2.00000
      2       1.0120      2.00000
      3       2.0202      2.00000
      4       2.7900      2.00000
      5       2.8688      2.00000
      6       3.0430      2.00000
      7       3.2666      2.00000
      8       3.4914      2.00000
      9       3.5824      2.00000
     10       3.8371      2.00000
     11       3.9422      2.00000
     12       4.2061      2.00000
     13       4.4371      2.00000
     14       4.5879      2.00000
     15       4.6713      2.00000
     16       4.8749      2.00000
     17       4.8844      2.00000
     18       6.0088      2.00000
     19       6.1226      2.00000
     20       6.2033      2.00000
     21       9.0926      0.00000
     22       9.2854      0.00000
     23       9.8825      0.00000
     24      12.8591      0.00000

 k-point   7 :       0.5000    0.0000    0.0000
  band No.  band energies     occupation 
      1      -0.0867      2.00000
      2       0.3758      2.00000
      3       1.9758      2.00000
      4       2.8034      2.00000
      5       2.8575      2.00000
      6       3.1229      2.00000
      7       3.2798      2.00000
      8       3.4298      2.00000
      9       3.5930      2.00000
     10       3.8136      2.00000
     11       3.9751      2.00000
     12       4.2733      2.00000
     13       4.4286      2.00000
     14       4.4984      2.00000
     15       4.7331      2.00000
     16       4.8822      2.00000
     17       4.9179      2.00000
     18       5.8333      2.00000
     19       6.1702      2.00000
     20       6.3026      2.00000
     21       8.8752      0.00000
     22       8.9992      0.00000
     23       9.7284      0.00000
     24      12.8527      0.00000

 k-point   8 :       0.0833    0.0833    0.0000
  band No.  band energies     occupation 
      1      -2.4992      2.00000
      2       1.9639      2.00000
      3       2.4941      2.00000
      4       2.5884      2.00000
      5       2.6362      2.00000
      6       3.1342      2.00000
      7       3.2605      2.00000
      8       3.2927      2.00000
      9       3.4954      2.00000
     10       3.6453      2.00000
     11       3.9638      2.00000
     12       3.9960      2.00000
     13       4.5100      2.00000
     14       4.5229      2.00000
     15       4.8878      2.00000
     16       4.9003      2.00000
     17       5.1174      2.00000
     18       6.3470      2.00000
     19       7.3843      0.66951
     20       7.7682     -0.01069
     21      10.6492      0.00000
     22      11.2084      0.00000
     23      12.8329      0.00000
     24      12.8934      0.00000

 k-point   9 :       0.1667    0.0833    0.0000
  band No.  band energies     occupation 
      1      -2.1601      2.00000
      2       1.8949      2.00000
      3       2.4549      2.00000
      4       2.6881      2.00000
      5       2.6931      2.00000
      6       3.1663      2.00000
      7       3.2063      2.00000
      8       3.4606      2.00000
      9       3.4697      2.00000
     10       3.6811      2.00000
     11       3.9128      2.00000
     12       3.9904      2.00000
     13       4.4741      2.00000
     14       4.5143      2.00000
     15       4.8709      2.00000
     16       4.8978      2.00000
     17       5.2985      2.00000
     18       6.2316      2.00000
     19       6.3230      2.00000
     20       6.9791      2.02685
     21      10.4578      0.00000
     22      11.7352      0.00000
     23      11.8214      0.00000
     24      12.2143      0.00000

 k-point  10 :       0.2500    0.0833    0.0000
  band No.  band energies     occupation 
      1      -1.6606      2.00000
      2       1.7621      2.00000
      3       2.3199      2.00000
      4       2.7446      2.00000
      5       2.8222      2.00000
      6       2.9935      2.00000
      7       3.2053      2.00000
[...]
      1      -1.2025      2.00000
      2       0.0366      2.00000
      3       2.4453      2.00000
      4       2.7825      2.00000
      5       2.9086      2.00000
      6       2.9108      2.00000
      7       3.0611      2.00000
      8       3.6190      2.00000
      9       3.8802      2.00000
     10       3.9624      2.00000
     11       4.0184      2.00000
     12       4.0753      2.00000
     13       4.2601      2.00000
     14       4.4192      2.00000
     15       4.4698      2.00000
     16       4.5320      2.00000
     17       4.5408      2.00000
     18       7.3390      1.17847
     19       8.0217     -0.00003
     20       8.1428      0.00000
     21       9.2074      0.00000
     22      11.4388      0.00000
     23      11.5217      0.00000
     24      12.6401      0.00000

 k-point  86 :       0.2500    0.0833    0.5000
  band No.  band energies     occupation 
      1      -0.7219      2.00000
      2       0.4618      2.00000
      3       2.2879      2.00000
      4       2.8140      2.00000
      5       2.8883      2.00000
      6       2.9596      2.00000
      7       3.1149      2.00000
      8       3.4066      2.00000
      9       3.8703      2.00000
     10       3.9194      2.00000
     11       3.9949      2.00000
     12       4.1019      2.00000
     13       4.2295      2.00000
     14       4.3389      2.00000
     15       4.4277      2.00000
     16       4.5055      2.00000
     17       4.5537      2.00000
     18       6.2100      2.00000
     19       6.8349      2.00129
     20       7.6039     -0.07090
     21       8.7636      0.00000
     22      11.1287      0.00000
     23      11.4320      0.00000
     24      12.9389      0.00000

 k-point  87 :       0.3333    0.0833    0.5000
  band No.  band energies     occupation 
      1      -0.1138      2.00000
      2       0.9848      2.00000
      3       1.9805      2.00000
      4       2.6144      2.00000
      5       2.8412      2.00000
      6       3.0878      2.00000
      7       3.1637      2.00000
      8       3.2313      2.00000
      9       3.8259      2.00000
     10       3.8641      2.00000
     11       3.9773      2.00000
     12       4.0935      2.00000
     13       4.2143      2.00000
     14       4.3183      2.00000
     15       4.3977      2.00000
     16       4.5001      2.00000
     17       4.5786      2.00000
     18       5.4306      2.00000
     19       5.8930      2.00000
     20       7.2271      1.89454
     21       8.4831      0.00000
     22      10.9286      0.00000
     23      11.2844      0.00000
     24      13.4999      0.00000

 k-point  88 :       0.4167    0.0833    0.5000
  band No.  band energies     occupation 
      1       0.5455      2.00000
      2       1.4594      2.00000
      3       1.5111      2.00000
      4       2.2844      2.00000
      5       2.7378      2.00000
      6       3.1641      2.00000
      7       3.1924      2.00000
      8       3.2276      2.00000
      9       3.7645      2.00000
     10       3.8253      2.00000
     11       3.9673      2.00000
     12       4.0640      2.00000
     13       4.2149      2.00000
     14       4.3296      2.00000
     15       4.3865      2.00000
     16       4.5578      2.00000
     17       4.6168      2.00000
     18       5.0353      2.00000
     19       5.3255      2.00000
     20       7.0304      2.04166
     21       8.3465      0.00000
     22      10.8322      0.00000
     23      11.1952      0.00000
     24      14.1638      0.00000

 k-point  89 :       0.1667    0.1667    0.5000
  band No.  band energies     occupation 
      1      -0.8004      2.00000
      2       0.3931      2.00000
      3       2.3398      2.00000
      4       2.8575      2.00000
      5       2.8609      2.00000
      6       2.9647      2.00000
      7       3.0917      2.00000
      8       3.4301      2.00000
      9       3.8882      2.00000
     10       3.9284      2.00000
     11       3.9896      2.00000
     12       4.1130      2.00000
     13       4.2343      2.00000
     14       4.3211      2.00000
     15       4.4237      2.00000
     16       4.5239      2.00000
     17       4.5518      2.00000
     18       6.6472      2.00001
     19       7.0899      2.06679
     20       7.2537      1.77478
     21       8.2049      0.00000
     22      12.1548      0.00000
     23      12.4786      0.00000
     24      12.6668      0.00000

 k-point  90 :       0.2500    0.1667    0.5000
  band No.  band energies     occupation 
      1      -0.2597      2.00000
      2       0.8629      2.00000
      3       2.1618      2.00000
      4       2.7505      2.00000
      5       2.8651      2.00000
      6       3.0415      2.00000
      7       3.1090      2.00000
      8       3.2264      2.00000
      9       3.8698      2.00000
     10       3.8750      2.00000
     11       3.9658      2.00000
     12       4.1313      2.00000
     13       4.2149      2.00000
     14       4.2444      2.00000
     15       4.3751      2.00000
     16       4.5377      2.00000
     17       4.5687      2.00000
     18       5.7986      2.00000
     19       6.3540      2.00000
     20       6.5762      2.00000
     21       7.6813     -0.04562
     22      12.3184      0.00000
     23      12.5061      0.00000
     24      13.6098      0.00000

 k-point  91 :       0.3333    0.1667    0.5000
  band No.  band energies     occupation 
      1       0.3792      2.00000
      2       1.3919      2.00000
      3       1.8101      2.00000
      4       2.5262      2.00000
      5       2.7006      2.00000
      6       3.0800      2.00000
      7       3.1112      2.00000
      8       3.2381      2.00000
      9       3.8093      2.00000
     10       3.8202      2.00000
     11       3.9503      2.00000
     12       4.0859      2.00000
     13       4.2124      2.00000
     14       4.2491      2.00000
     15       4.3442      2.00000
     16       4.5904      2.00000
     17       4.6151      2.00000
     18       5.2229      2.00000
     19       5.6128      2.00000
     20       6.3167      2.00000
     21       7.4414      0.37124
     22      12.1643      0.00000
     23      12.5711      0.00000
     24      14.0760      0.00000

 k-point  92 :       0.4167    0.1667    0.5000
  band No.  band energies     occupation 
      1       0.8761      2.00000
      2       1.4002      2.00000
      3       1.7495      2.00000
      4       2.2846      2.00000
      5       2.6169      2.00000
      6       3.0908      2.00000
      7       3.1094      2.00000
      8       3.2904      2.00000
      9       3.7769      2.00000
     10       3.7832      2.00000
     11       3.9444      2.00000
     12       4.0631      2.00000
     13       4.2160      2.00000
     14       4.2562      2.00000
     15       4.3357      2.00000
     16       4.6054      2.00000
     17       4.7085      2.00000
     18       5.0292      2.00000
     19       5.2844      2.00000
     20       6.2311      2.00000
     21       7.3695      0.92112
     22      12.1117      0.00000
     23      12.5613      0.00000
     24      14.5327      0.00000

 k-point  93 :       0.2500    0.2500    0.5000
  band No.  band energies     occupation 
      1       0.3173      2.00000
      2       1.3455      2.00000
      3       1.9944      2.00000
      4       2.6571      2.00000
      5       2.6628      2.00000
      6       3.0365      2.00000
      7       3.0419      2.00000
      8       3.2439      2.00000
      9       3.7991      2.00000
     10       3.8516      2.00000
     11       3.9446      2.00000
     12       4.0962      2.00000
     13       4.2103      2.00000
     14       4.2180      2.00000
     15       4.3151      2.00000
     16       4.5810      2.00000
     17       4.6330      2.00000
     18       5.4244      2.00000
     19       5.8504      2.00000
     20       5.9010      2.00000
     21       6.9879      2.02436
     22      13.3445      0.00000
     23      13.4542      0.00000
     24      13.9467      0.00000

 k-point  94 :       0.3333    0.2500    0.5000
  band No.  band energies     occupation 
      1       0.9246      2.00000
      2       1.6867      2.00000
      3       1.8025      2.00000
      4       2.4036      2.00000
      5       2.4973      2.00000
      6       2.9512      2.00000
      7       3.0426      2.00000
      8       3.3395      2.00000
      9       3.7437      2.00000
     10       3.7864      2.00000
     11       3.9343      2.00000
     12       4.0542      2.00000
     13       4.2154      2.00000
     14       4.2267      2.00000
     15       4.2756      2.00000
     16       4.5837      2.00000
     17       4.8116      2.00000
     18       5.1568      2.00000
     19       5.3735      2.00000
     20       5.6513      2.00000
     21       6.7145      2.00005
     22      13.5694      0.00000
     23      13.8069      0.00000
     24      14.7929      0.00000

 k-point  95 :       0.3333    0.3333    0.5000
  band No.  band energies     occupation 
      1       1.2611      2.00000
      2       1.6370      2.00000
      3       2.0004      2.00000
      4       2.1581      2.00000
      5       2.5655      2.00000
      6       2.7710      2.00000
      7       3.0357      2.00000
      8       3.3997      2.00000
      9       3.7145      2.00000
     10       3.7460      2.00000
     11       3.9302      2.00000
     12       4.0399      2.00000
     13       4.2183      2.00000
     14       4.2242      2.00000
     15       4.2421      2.00000
     16       4.5748      2.00000
     17       5.0682      2.00000
     18       5.1105      2.00000
     19       5.2345      2.00000
     20       5.3389      2.00000
     21       6.4570      2.00000
     22      14.4341      0.00000
     23      14.4358      0.00000
     24      15.0610      0.00000


--------------------------------------------------------------------------------------------------------


 soft charge-density along one line, spin component           1
         0         1         2         3         4         5         6         7         8         9
 total charge-density along one line
 
 pseudopotential strength for first ion, spin component:           1
 -3.380   0.000   0.000   0.009   0.000  -4.346   0.000   0.000
  0.000  -3.351   0.000   0.000   0.009   0.000  -4.366   0.000
  0.000   0.000  -3.345   0.000   0.000   0.000   0.000  -4.370
  0.009   0.000   0.000  -3.351   0.000  -0.006   0.000   0.000
  0.000   0.009   0.000   0.000  -3.380   0.000  -0.006   0.000
 -4.346   0.000   0.000  -0.006   0.000  10.010   0.000   0.000
  0.000  -4.366   0.000   0.000  -0.006   0.000  10.025   0.000
  0.000   0.000  -4.370   0.000   0.000   0.000   0.000  10.029
 -0.006   0.000   0.000  -4.366   0.000   0.004   0.000   0.000
  0.000  -0.006   0.000   0.000  -4.346   0.000   0.004   0.000
  0.000   0.000  -0.001   0.000   0.000   0.000   0.000   0.002
  0.000   0.000  -0.002   0.000   0.000   0.000   0.000   0.003
  0.000  -0.001   0.000   0.000   0.001   0.000  -0.004   0.000
  0.000   0.000  -0.002   0.000   0.000   0.000   0.000  -0.002
  0.001   0.000   0.000  -0.001   0.000  -0.001   0.000   0.000
  0.000   0.001   0.000   0.000   0.001   0.000  -0.007   0.000
  0.000   0.000  -0.001   0.000   0.000   0.000   0.000  -0.005
  0.001   0.000   0.000   0.001   0.000  -0.002   0.000   0.000
 total augmentation occupancy for first ion, spin component:           1
  1.910   0.000   0.000   0.005   0.000  -0.022   0.000   0.000  -0.010   0.000   0.000   0.000   0.000   0.000   0.005   0.000
  0.000   1.910   0.000   0.000   0.005   0.000  -0.023   0.000   0.000  -0.010   0.000   0.000   0.017   0.000   0.000  -0.005
  0.000   0.000   1.914   0.000   0.000   0.000   0.000  -0.018   0.000   0.000   0.006  -0.013   0.000   0.010   0.000   0.000
  0.005   0.000   0.000   1.910   0.000  -0.010   0.000   0.000  -0.023   0.000   0.000   0.000   0.000   0.000   0.017   0.000
  0.000   0.005   0.000   0.000   1.910   0.000  -0.010   0.000   0.000  -0.022   0.000   0.000   0.005   0.000   0.000   0.002
 -0.022   0.000   0.000  -0.010   0.000   0.012   0.000   0.000   0.000   0.000   0.000   0.000   0.000   0.000  -0.015   0.000
  0.000  -0.023   0.000   0.000  -0.010   0.000   0.015   0.000   0.000   0.000   0.000   0.000  -0.017   0.000   0.000   0.001
  0.000   0.000  -0.018   0.000   0.000   0.000   0.000   0.016   0.000   0.000   0.022  -0.001   0.000   0.003   0.000   0.000
 -0.010   0.000   0.000  -0.023   0.000   0.000   0.000   0.000   0.015   0.000   0.000   0.000   0.000   0.000  -0.017   0.000
  0.000  -0.010   0.000   0.000  -0.022   0.000   0.000   0.000   0.000   0.012   0.000   0.000  -0.015   0.000   0.000   0.001
  0.000   0.000   0.006   0.000   0.000   0.000   0.000   0.022   0.000   0.000   1.775  -0.159   0.000  -0.001   0.000   0.000
  0.000   0.000  -0.013   0.000   0.000   0.000   0.000  -0.001   0.000   0.000  -0.159   0.022   0.000   0.014   0.000   0.000
  0.000   0.017   0.000   0.000   0.005   0.000  -0.017   0.000   0.000  -0.015   0.000   0.000   0.247   0.000   0.000  -0.015
  0.000   0.000   0.010   0.000   0.000   0.000   0.000   0.003   0.000   0.000  -0.001   0.014   0.000   0.318   0.000   0.000
  0.005   0.000   0.000   0.017   0.000  -0.015   0.000   0.000  -0.017   0.000   0.000   0.000   0.000   0.000   0.247   0.000
  0.000  -0.005   0.000   0.000   0.002   0.000   0.001   0.000   0.000   0.001   0.000   0.000  -0.015   0.000   0.000   0.001
  0.000   0.000  -0.010   0.000   0.000   0.000   0.000   0.000   0.000   0.000   0.005  -0.001   0.000  -0.018   0.000   0.000
  0.002   0.000   0.000  -0.005   0.000   0.001   0.000   0.000   0.001   0.000   0.000   0.000   0.000   0.000  -0.015   0.000


------------------------ aborting loop because EDIFF is reached ----------------------------------------


    CHARGE:  cpu time    0.08: real time    0.08
    FORLOC:  cpu time    0.00: real time    0.00
    FORNL :  cpu time    0.42: real time    0.42
    STRESS:  cpu time    0.92: real time    0.92
    FORCOR:  cpu time    0.01: real time    0.01
    FORHAR:  cpu time    0.00: real time    0.00
    MIXING:  cpu time    0.01: real time    0.00

  FORCE on cell =-STRESS in cart. coord.  units (eV):
  Direction    XX          YY          ZZ          XY          YZ          ZX
  --------------------------------------------------------------------------------------
  Alpha Z   109.70804   109.70804   109.70804
  Ewald    -976.25959  -976.25960  -878.74459    -0.00001     0.00000     0.00000
  Hartree   487.51663   487.51662   566.86271    -0.00001     0.00000     0.00000
  E(xc)    -210.21692  -210.21705  -209.97423    -0.00011    -0.00003    -0.00002
  Local      26.94825    26.94393  -151.55913    -0.00374    -0.00032    -0.00019
  n-local   -20.21947   -21.80416   -21.55750     3.01415    -0.79139    -0.05556
  augment   283.70760   283.71135   284.22615     0.00323     0.00024     0.00012
  Kinetic   300.81693   298.48755   301.09039     4.79678    -1.51189     0.61508
  Fock        0.00000     0.00000     0.00000     0.00000     0.00000     0.00000
  -------------------------------------------------------------------------------------
  Total       0.04407     0.04407     0.05184     0.00000     0.00000     0.00000
  in kB       1.00723     1.00723     1.18464     0.00000     0.00000     0.00000
  external pressure =        1.07 kB  Pullay stress =        0.00 kB


 VOLUME and BASIS-vectors are now :
 -----------------------------------------------------------------------------
  energy-cutoff  :      295.45
  volume of cell :       70.11
      direct lattice vectors                 reciprocal lattice vectors
     4.043714132  0.000000000  0.000000000     0.247297402  0.142777222  0.000000000
    -2.021857066  3.501959164  0.000000000     0.000000000  0.285554443  0.000000000
     0.000000000  0.000000000  4.950762940     0.000000000  0.000000000  0.201989070

  length of vectors
     4.043714132  4.043714132  4.950762940     0.285554443  0.285554443  0.201989070


 FORCES acting on ions
    electron-ion (+dipol)            ewald-force                    non-local-force                 convergence-correction
 -----------------------------------------------------------------------------------------------
   0.343E-05 0.784E-05 -.189E+03   -.277E-05 0.159E-05 0.192E+03   -.130E-17 0.867E-18 -.304E+01   0.266E-07 -.160E-07 -.270E-02
   -.507E-05 -.688E-05 0.189E+03   -.277E-05 0.159E-05 -.192E+03   0.000E+00 0.000E+00 0.304E+01   0.272E-07 -.150E-07 0.270E-02
   0.266E-07 -.267E-07 -.399E-07   0.889E-05 -.512E-05 -.327E-14   -.173E-16 0.278E-16 0.139E-16   -.470E-07 0.271E-07 0.693E-12
   -.512E-05 0.295E-05 -.481E-07   0.167E-05 -.960E-06 -.806E-15   -.104E-16 0.139E-16 -.347E-17   0.767E-08 -.443E-08 0.705E-14
   0.802E-05 -.463E-05 -.814E-07   -.501E-05 0.289E-05 -.303E-14   -.139E-16 0.694E-17 -.139E-16   -.152E-07 0.876E-08 -.697E-14
 -----------------------------------------------------------------------------------------------
   0.129E-05 -.744E-06 -.745E-07   0.587E-14 0.278E-14 -.711E-14   -.429E-16 0.494E-16 0.885E-15   -.711E-09 0.411E-09 0.522E-11
 
 
 POSITION                                       TOTAL-FORCE (eV/Angst)
 -----------------------------------------------------------------------------------
      0.00000      0.00000      0.00973         0.000000      0.000000     -0.000260
      0.00000      0.00000      2.46566         0.000000      0.000000      0.000260
      0.00000      2.33464      3.71307         0.000000      0.000000      0.000000
      0.00000      2.33464      1.23769         0.000000      0.000000      0.000000
      2.02186      1.16732      3.71307         0.000000      0.000000      0.000000
 -----------------------------------------------------------------------------------
    total drift:                                0.000001     -0.000001      0.000000


--------------------------------------------------------------------------------------------------------



  FREE ENERGIE OF THE ION-ELECTRON SYSTEM (eV)
  ---------------------------------------------------
  free  energy   TOTEN  =       -19.443990 eV

  energy  without entropy=      -19.447006  energy(sigma->0) =      -19.444995
 
 d Force = 0.3066191E-06[ 0.530E-07, 0.560E-06]  d Energy = 0.1437931E-05-0.113E-05
 d Force =-0.3905380E-01[-0.391E-01,-0.390E-01]  d Ewald  = 0.4677403E+00-0.507E+00


--------------------------------------------------------------------------------------------------------


    POTLOK:  cpu time    0.01: real time    0.02


--------------------------------------------------------------------------------------------------------




--------------------------------------------------------------------------------------------------------


     LOOP+:  cpu time    9.10: real time    9.17
    4ORBIT:  cpu time    0.00: real time    0.00

 total amount of memory used by VASP on root node    62790. kBytes
========================================================================

   base      :      30000. kBytes
   nonl-proj :      22720. kBytes
   fftplans  :        572. kBytes
   grid      :       1213. kBytes
   one-center:         77. kBytes
   wavefun   :       8208. kBytes
 
  
  
 General timing and accounting informations for this job:
 ========================================================
  
                  Total CPU time used (sec):      104.250
                            User time (sec):      103.910
                          System time (sec):        0.340
                         Elapsed time (sec):      105.100
  
                   Maximum memory used (kb):       64584.
                   Average memory used (kb):           0.
  
                          Minor page faults:        16534
                          Major page faults:            0
                 Voluntary context switches:         1125
