 vasp.5.2.12 11Nov11 complex                                                    
  
 executed on             LinuxIFC date 2013.01.24  11:24:13
 running on    4 nodes
 distr:  one band on    1 nodes,    4 groups


--------------------------------------------------------------------------------------------------------


 INCAR:
 POTCAR:    PAW_PBE Cu 22Jun2005                  
 POTCAR:    PAW_PBE Cu 22Jun2005                  
   VRHFIN =Cu: d10 p1                                                           
   LEXCH  = PE                                                                  
   EATOM  =  1390.9808 eV,  102.2342 Ry                                         
                                                                                
   TITEL  = PAW_PBE Cu 22Jun2005                                                
   LULTRA =        F    use ultrasoft PP ?                                      
   IUNSCR =        1    unscreen: 0-lin 1-nonlin 2-no                           
   RPACOR =    2.000    partial core radius                                     
   POMASS =   63.546; ZVAL   =   11.000    mass and valenz                      
   RCORE  =    2.300    outmost cutoff radius                                   
   RWIGS  =    2.200; RWIGS  =    1.164    wigner-seitz radius (au A)           
   ENMAX  =  295.446; ENMIN  =  221.585 eV                                      
   ICORE  =        3    local potential                                         
   LCOR   =        T    correct aug charges                                     
   LPAW   =        T    paw PP                                                  
   EAUG   =  586.980                                                            
   DEXC   =    0.000                                                            
   RMAX   =    2.344    core radius for proj-oper                               
   RAUG   =    1.300    factor for augmentation sphere                          
   RDEP   =    2.302    radius for radial grids                                 
   RDEPT  =    1.771    core radius for aug-charge                              
                                                                                
   Atomic configuration                                                         
    9 entries                                                                   
     n  l   j            E        occ.                                          
     1  0  0.50     -8850.2468   2.0000                                         
     2  0  0.50     -1062.3498   2.0000                                         
     2  1  1.50      -916.8226   6.0000                                         
     3  0  0.50      -114.6929   2.0000                                         
     3  1  1.50       -72.1325   6.0000                                         
     3  2  2.50        -5.0394  10.0000                                         
     4  0  0.50        -4.6097   1.0000                                         
     4  1  0.50        -4.0817   0.0000                                         
     4  3  2.50        -1.3606   0.0000                                         
   Description                                                                  
     l       E           TYP  RCUT    TYP  RCUT                                 
     2     -5.0393973     23  2.200                                             
     2     10.8846608     23  2.200                                             
     0     -4.6097109     23  2.200                                             
     0      8.2520465     23  2.200                                             
     1     -2.7211652     23  2.200                                             
     1     21.7055443     23  2.200                                             
     3      2.7211652     23  2.300                                             
  local pseudopotential read in
  partial core-charges read in
  partial kinetic energy density read in
  atomic valenz-charges read in
  non local Contribution for L=           2  read in
    real space projection operators read in
  non local Contribution for L=           2  read in
    real space projection operators read in
  non local Contribution for L=           0  read in
    real space projection operators read in
  non local Contribution for L=           0  read in
    real space projection operators read in
  non local Contribution for L=           1  read in
    real space projection operators read in
  non local Contribution for L=           1  read in
    real space projection operators read in
    PAW grid and wavefunctions read in
 
   number of l-projection  operators is LMAX  =           6
   number of lm-projection operators is LMMAX =          18
 
  PAW_PBE Cu 22Jun2005                  :
 energy of atom  1       EATOM=-1390.9808
 kinetic energy error for atom=    0.0452 (will be added to EATOM!!)
 
 
 POSCAR: XYZ: Cu1                                
  positions in direct lattice
  velocities in cartesian coordinates
 exchange correlation table for  LEXCH =        8
   RHO(1)=    0.500       N(1)  =     2000
   RHO(2)=  100.500       N(2)  =     4000
 


--------------------------------------------------------------------------------------------------------


 ion  position               nearest neighbor table
   1  0.000  0.000  0.000-
 
  LATTYP: Found a face centered cubic cell.
 ALAT       =     3.6031660041
  
  Lattice vectors:
  
 A1 = (   1.8015830021,   1.8015830021,   0.0000000000)
 A2 = (   0.0000000000,   1.8015830021,   1.8015830021)
 A3 = (   1.8015830021,   0.0000000000,   1.8015830021)
 Subroutine PRICEL returns:
 Original cell was already a primitive cell.
 

Analysis of symmetry for initial positions (statically):

 Routine SETGRP: Setting up the symmetry group for a 
 face centered cubic supercell.


 Subroutine GETGRP returns: Found 48 space group operations
 (whereof 48 operations were pure point group operations)
 out of a pool of 48 trial point group operations.


The static configuration has the point symmetry O_h .

Analysis of symmetry for dynamics (positions and initial velocities):

 Subroutine DYNSYM returns: Found 48 space group operations
 (whereof 48 operations were pure point group operations)
 out of a pool of 48 trial space group operations
 (whereof 48 operations were pure point group operations)
 and found also     1 'primitive' translations


The dynamic configuration has the point symmetry O_h .
 
 
 KPOINTS: Automatic mesh                          

Automatic generation of k-mesh.
 
 Subroutine IBZKPT returns following result:
 ===========================================
 
 Found   1300 irreducible k-points:
 
 Following reciprocal coordinates:
            Coordinates               Weight
  0.020833  0.020833  0.020833     96.000000
  0.062500  0.020833  0.020833    288.000000
  0.104167  0.020833  0.020833    288.000000
  0.145833  0.020833  0.020833    288.000000
  0.187500  0.020833  0.020833    288.000000
  0.229167  0.020833  0.020833    288.000000
  0.270833  0.020833  0.020833    288.000000
  0.312500  0.020833  0.020833    288.000000
  0.354167  0.020833  0.020833    288.000000
  0.395833  0.020833  0.020833    288.000000
  0.437500  0.020833  0.020833    288.000000
  0.479167  0.020833  0.020833    288.000000
 -0.479167  0.020833  0.020833    288.000000
 -0.437500  0.020833  0.020833    288.000000
 -0.395833  0.020833  0.020833    288.000000
 -0.354167  0.020833  0.020833    288.000000
 -0.312500  0.020833  0.020833    288.000000
 -0.270833  0.020833  0.020833    288.000000
 -0.229167  0.020833  0.020833    288.000000
 -0.187500  0.020833  0.020833    288.000000
 -0.145833  0.020833  0.020833    288.000000
 -0.104167  0.020833  0.020833    288.000000
 -0.062500  0.020833  0.020833    288.000000
 -0.020833  0.020833  0.020833    288.000000
  0.062500  0.062500  0.020833    288.000000
  0.104167  0.062500  0.020833    576.000000
  0.145833  0.062500  0.020833    576.000000
  0.187500  0.062500  0.020833    576.000000
  0.229167  0.062500  0.020833    576.000000
  0.270833  0.062500  0.020833    576.000000
  0.312500  0.062500  0.020833    576.000000
  0.354167  0.062500  0.020833    576.000000
  0.395833  0.062500  0.020833    576.000000
  0.437500  0.062500  0.020833    576.000000
  0.479167  0.062500  0.020833    576.000000
 -0.479167  0.062500  0.020833    576.000000
 -0.437500  0.062500  0.020833    576.000000
 -0.395833  0.062500  0.020833    576.000000
 -0.354167  0.062500  0.020833    576.000000
 -0.312500  0.062500  0.020833    576.000000
 -0.270833  0.062500  0.020833    576.000000
 -0.229167  0.062500  0.020833    576.000000
 -0.187500  0.062500  0.020833    576.000000
 -0.145833  0.062500  0.020833    576.000000
 -0.104167  0.062500  0.020833    576.000000
 -0.062500  0.062500  0.020833    576.000000
 -0.020833  0.062500  0.020833    576.000000
  0.104167  0.104167  0.020833    288.000000
  0.145833  0.104167  0.020833    576.000000
  0.187500  0.104167  0.020833    576.000000
  0.229167  0.104167  0.020833    576.000000
  0.270833  0.104167  0.020833    576.000000
  0.312500  0.104167  0.020833    576.000000
  0.354167  0.104167  0.020833    576.000000
  0.395833  0.104167  0.020833    576.000000
  0.437500  0.104167  0.020833    576.000000
  0.479167  0.104167  0.020833    576.000000
 -0.479167  0.104167  0.020833    576.000000
 -0.437500  0.104167  0.020833    576.000000
 -0.395833  0.104167  0.020833    576.000000
 -0.354167  0.104167  0.020833    576.000000
 -0.312500  0.104167  0.020833    576.000000
 -0.270833  0.104167  0.020833    576.000000
 -0.229167  0.104167  0.020833    576.000000
 -0.187500  0.104167  0.020833    576.000000
 -0.145833  0.104167  0.020833    576.000000
 -0.104167  0.104167  0.020833    576.000000
 -0.062500  0.104167  0.020833    576.000000
 -0.020833  0.104167  0.020833    576.000000
  0.145833  0.145833  0.020833    288.000000
  0.187500  0.145833  0.020833    576.000000
  0.229167  0.145833  0.020833    576.000000
  0.270833  0.145833  0.020833    576.000000
  0.312500  0.145833  0.020833    576.000000
  0.354167  0.145833  0.020833    576.000000
  0.395833  0.145833  0.020833    576.000000
  0.437500  0.145833  0.020833    576.000000
  0.479167  0.145833  0.020833    576.000000
 -0.479167  0.145833  0.020833    576.000000
 -0.437500  0.145833  0.020833    576.000000
 -0.395833  0.145833  0.020833    576.000000
 -0.354167  0.145833  0.020833    576.000000
 -0.312500  0.145833  0.020833    576.000000
 -0.270833  0.145833  0.020833    576.000000
 -0.229167  0.145833  0.020833    576.000000
 -0.187500  0.145833  0.020833    576.000000
 -0.145833  0.145833  0.020833    576.000000
 -0.104167  0.145833  0.020833    576.000000
 -0.062500  0.145833  0.020833    576.000000
 -0.020833  0.145833  0.020833    576.000000
  0.187500  0.187500  0.020833    288.000000
  0.229167  0.187500  0.020833    576.000000
  0.270833  0.187500  0.020833    576.000000
  0.312500  0.187500  0.020833    576.000000
  0.354167  0.187500  0.020833    576.000000
  0.395833  0.187500  0.020833    576.000000
  0.437500  0.187500  0.020833    576.000000
  0.479167  0.187500  0.020833    576.000000
 -0.479167  0.187500  0.020833    576.000000
 -0.437500  0.187500  0.020833    576.000000
 -0.395833  0.187500  0.020833    576.000000
 -0.354167  0.187500  0.020833    576.000000
 -0.312500  0.187500  0.020833    576.000000
 -0.270833  0.187500  0.020833    576.000000
 -0.229167  0.187500  0.020833    576.000000
 -0.187500  0.187500  0.020833    576.000000
 -0.145833  0.187500  0.020833    576.000000
 -0.104167  0.187500  0.020833    576.000000
 -0.062500  0.187500  0.020833    576.000000
 -0.020833  0.187500  0.020833    576.000000
  0.229167  0.229167  0.020833    288.000000
  0.270833  0.229167  0.020833    576.000000
  0.312500  0.229167  0.020833    576.000000
  0.354167  0.229167  0.020833    576.000000
  0.395833  0.229167  0.020833    576.000000
  0.437500  0.229167  0.020833    576.000000
  0.479167  0.229167  0.020833    576.000000
 -0.479167  0.229167  0.020833    576.000000
 -0.437500  0.229167  0.020833    576.000000
 -0.395833  0.229167  0.020833    576.000000
 -0.354167  0.229167  0.020833    576.000000
 -0.312500  0.229167  0.020833    576.000000
 -0.270833  0.229167  0.020833    576.000000
 -0.229167  0.229167  0.020833    576.000000
 -0.187500  0.229167  0.020833    576.000000
 -0.145833  0.229167  0.020833    576.000000
 -0.104167  0.229167  0.020833    576.000000
 -0.062500  0.229167  0.020833    576.000000
 -0.020833  0.229167  0.020833    576.000000
  0.270833  0.270833  0.020833    288.000000
  0.312500  0.270833  0.020833    576.000000
  0.354167  0.270833  0.020833    576.000000
  0.395833  0.270833  0.020833    576.000000
  0.437500  0.270833  0.020833    576.000000
  0.479167  0.270833  0.020833    576.000000
 -0.479167  0.270833  0.020833    576.000000
 -0.437500  0.270833  0.020833    576.000000
 -0.395833  0.270833  0.020833    576.000000
 -0.354167  0.270833  0.020833    576.000000
 -0.312500  0.270833  0.020833    576.000000
 -0.270833  0.270833  0.020833    576.000000
 -0.229167  0.270833  0.020833    576.000000
 -0.187500  0.270833  0.020833    576.000000
 -0.145833  0.270833  0.020833    576.000000
 -0.104167  0.270833  0.020833    576.000000
 -0.062500  0.270833  0.020833    576.000000
 -0.020833  0.270833  0.020833    576.000000
  0.312500  0.312500  0.020833    288.000000
  0.354167  0.312500  0.020833    576.000000
  0.395833  0.312500  0.020833    576.000000
  0.437500  0.312500  0.020833    576.000000
  0.479167  0.312500  0.020833    576.000000
 -0.479167  0.312500  0.020833    576.000000
 -0.437500  0.312500  0.020833    576.000000
 -0.395833  0.312500  0.020833    576.000000
 -0.354167  0.312500  0.020833    576.000000
 -0.312500  0.312500  0.020833    576.000000
 -0.270833  0.312500  0.020833    576.000000
 -0.229167  0.312500  0.020833    576.000000
 -0.187500  0.312500  0.020833    576.000000
 -0.145833  0.312500  0.020833    576.000000
 -0.104167  0.312500  0.020833    576.000000
 -0.062500  0.312500  0.020833    576.000000
 -0.020833  0.312500  0.020833    576.000000
  0.354167  0.354167  0.020833    288.000000
  0.395833  0.354167  0.020833    576.000000
  0.437500  0.354167  0.020833    576.000000
  0.479167  0.354167  0.020833    576.000000
 -0.479167  0.354167  0.020833    576.000000
 -0.437500  0.354167  0.020833    576.000000
 -0.395833  0.354167  0.020833    576.000000
 -0.354167  0.354167  0.020833    576.000000
 -0.312500  0.354167  0.020833    576.000000
 -0.270833  0.354167  0.020833    576.000000
 -0.229167  0.354167  0.020833    576.000000
 -0.187500  0.354167  0.020833    576.000000
 -0.145833  0.354167  0.020833    576.000000
 -0.104167  0.354167  0.020833    576.000000
 -0.062500  0.354167  0.020833    576.000000
 -0.020833  0.354167  0.020833    576.000000
  0.395833  0.395833  0.020833    288.000000
  0.437500  0.395833  0.020833    576.000000
  0.479167  0.395833  0.020833    576.000000
 -0.479167  0.395833  0.020833    576.000000
 -0.437500  0.395833  0.020833    576.000000
 -0.395833  0.395833  0.020833    576.000000
 -0.354167  0.395833  0.020833    576.000000
 -0.312500  0.395833  0.020833    576.000000
 -0.270833  0.395833  0.020833    576.000000
 -0.229167  0.395833  0.020833    576.000000
 -0.187500  0.395833  0.020833    576.000000
 -0.145833  0.395833  0.020833    576.000000
 -0.104167  0.395833  0.020833    576.000000
 -0.062500  0.395833  0.020833    576.000000
 -0.020833  0.395833  0.020833    576.000000
  0.437500  0.437500  0.020833    288.000000
  0.479167  0.437500  0.020833    576.000000
 -0.479167  0.437500  0.020833    576.000000
 -0.437500  0.437500  0.020833    576.000000
 -0.395833  0.437500  0.020833    576.000000
 -0.354167  0.437500  0.020833    576.000000
 -0.312500  0.437500  0.020833    576.000000
 -0.270833  0.437500  0.020833    576.000000
 -0.229167  0.437500  0.020833    576.000000
 -0.187500  0.437500  0.020833    576.000000
 -0.145833  0.437500  0.020833    576.000000
 -0.104167  0.437500  0.020833    576.000000
 -0.062500  0.437500  0.020833    576.000000
 -0.020833  0.437500  0.020833    576.000000
  0.479167  0.479167  0.020833    288.000000
 -0.479167  0.479167  0.020833    576.000000
 -0.437500  0.479167  0.020833    576.000000
 -0.395833  0.479167  0.020833    576.000000
 -0.354167  0.479167  0.020833    576.000000
 -0.312500  0.479167  0.020833    576.000000
 -0.270833  0.479167  0.020833    576.000000
 -0.229167  0.479167  0.020833    576.000000
 -0.187500  0.479167  0.020833    576.000000
 -0.145833  0.479167  0.020833    576.000000
 -0.104167  0.479167  0.020833    576.000000
 -0.062500  0.479167  0.020833    576.000000
 -0.020833  0.479167  0.020833    576.000000
 -0.479167 -0.479167  0.020833    288.000000
 -0.437500 -0.479167  0.020833    576.000000
 -0.395833 -0.479167  0.020833    576.000000
 -0.354167 -0.479167  0.020833    576.000000
 -0.312500 -0.479167  0.020833    576.000000
 -0.270833 -0.479167  0.020833    576.000000
 -0.229167 -0.479167  0.020833    576.000000
 -0.187500 -0.479167  0.020833    576.000000
 -0.145833 -0.479167  0.020833    576.000000
 -0.104167 -0.479167  0.020833    576.000000
 -0.062500 -0.479167  0.020833    576.000000
 -0.437500 -0.437500  0.020833    288.000000
 -0.395833 -0.437500  0.020833    576.000000
 -0.354167 -0.437500  0.020833    576.000000
 -0.312500 -0.437500  0.020833    576.000000
 -0.270833 -0.437500  0.020833    576.000000
 -0.229167 -0.437500  0.020833    576.000000
 -0.187500 -0.437500  0.020833    576.000000
 -0.145833 -0.437500  0.020833    576.000000
 -0.104167 -0.437500  0.020833    576.000000
 -0.062500 -0.437500  0.020833    576.000000
 -0.395833 -0.395833  0.020833    288.000000
 -0.354167 -0.395833  0.020833    576.000000
 -0.312500 -0.395833  0.020833    576.000000
 -0.270833 -0.395833  0.020833    576.000000
 -0.229167 -0.395833  0.020833    576.000000
 -0.187500 -0.395833  0.020833    576.000000
 -0.145833 -0.395833  0.020833    576.000000
 -0.104167 -0.395833  0.020833    576.000000
 -0.062500 -0.395833  0.020833    576.000000
 -0.354167 -0.354167  0.020833    288.000000
 -0.312500 -0.354167  0.020833    576.000000
 -0.270833 -0.354167  0.020833    576.000000
 -0.229167 -0.354167  0.020833    576.000000
 -0.187500 -0.354167  0.020833    576.000000
 -0.145833 -0.354167  0.020833    576.000000
 -0.104167 -0.354167  0.020833    576.000000
 -0.062500 -0.354167  0.020833    576.000000
 -0.312500 -0.312500  0.020833    288.000000
 -0.270833 -0.312500  0.020833    576.000000
 -0.229167 -0.312500  0.020833    576.000000
 -0.187500 -0.312500  0.020833    576.000000
 -0.145833 -0.312500  0.020833    576.000000
 -0.104167 -0.312500  0.020833    576.000000
 -0.062500 -0.312500  0.020833    576.000000
 -0.270833 -0.270833  0.020833    288.000000
 -0.229167 -0.270833  0.020833    576.000000
 -0.187500 -0.270833  0.020833    576.000000
 -0.145833 -0.270833  0.020833    576.000000
 -0.104167 -0.270833  0.020833    576.000000
 -0.062500 -0.270833  0.020833    576.000000
 -0.229167 -0.229167  0.020833    288.000000
 -0.187500 -0.229167  0.020833    576.000000
 -0.145833 -0.229167  0.020833    576.000000
 -0.104167 -0.229167  0.020833    576.000000
 -0.062500 -0.229167  0.020833    576.000000
 -0.187500 -0.187500  0.020833    288.000000
 -0.145833 -0.187500  0.020833    576.000000
 -0.104167 -0.187500  0.020833    576.000000
 -0.062500 -0.187500  0.020833    576.000000
 -0.145833 -0.145833  0.020833    288.000000
 -0.104167 -0.145833  0.020833    576.000000
 -0.062500 -0.145833  0.020833    576.000000
 -0.104167 -0.104167  0.020833    288.000000
 -0.062500 -0.104167  0.020833    576.000000
 -0.062500 -0.062500  0.020833    288.000000
  0.062500  0.062500  0.062500     96.000000
  0.104167  0.062500  0.062500    288.000000
  0.145833  0.062500  0.062500    288.000000
  0.187500  0.062500  0.062500    288.000000
  0.229167  0.062500  0.062500    288.000000
  0.270833  0.062500  0.062500    288.000000
  0.312500  0.062500  0.062500    288.000000
  0.354167  0.062500  0.062500    288.000000
  0.395833  0.062500  0.062500    288.000000
  0.437500  0.062500  0.062500    288.000000
  0.479167  0.062500  0.062500    288.000000
 -0.479167  0.062500  0.062500    288.000000
 -0.437500  0.062500  0.062500    288.000000
 -0.395833  0.062500  0.062500    288.000000
 -0.354167  0.062500  0.062500    288.000000
 -0.312500  0.062500  0.062500    288.000000
 -0.270833  0.062500  0.062500    288.000000
 -0.229167  0.062500  0.062500    288.000000
 -0.187500  0.062500  0.062500    288.000000
 -0.145833  0.062500  0.062500    288.000000
 -0.104167  0.062500  0.062500    288.000000
 -0.062500  0.062500  0.062500    288.000000
  0.104167  0.104167  0.062500    288.000000
  0.145833  0.104167  0.062500    576.000000
  0.187500  0.104167  0.062500    576.000000
  0.229167  0.104167  0.062500    576.000000
  0.270833  0.104167  0.062500    576.000000
  0.312500  0.104167  0.062500    576.000000
  0.354167  0.104167  0.062500    576.000000
  0.395833  0.104167  0.062500    576.000000
  0.437500  0.104167  0.062500    576.000000
  0.479167  0.104167  0.062500    576.000000
 -0.479167  0.104167  0.062500    576.000000
 -0.437500  0.104167  0.062500    576.000000
 -0.395833  0.104167  0.062500    576.000000
 -0.354167  0.104167  0.062500    576.000000
 -0.312500  0.104167  0.062500    576.000000
 -0.270833  0.104167  0.062500    576.000000
 -0.229167  0.104167  0.062500    576.000000
 -0.187500  0.104167  0.062500    576.000000
 -0.145833  0.104167  0.062500    576.000000
 -0.104167  0.104167  0.062500    576.000000
 -0.062500  0.104167  0.062500    576.000000
  0.145833  0.145833  0.062500    288.000000
  0.187500  0.145833  0.062500    576.000000
  0.229167  0.145833  0.062500    576.000000
  0.270833  0.145833  0.062500    576.000000
  0.312500  0.145833  0.062500    576.000000
  0.354167  0.145833  0.062500    576.000000
  0.395833  0.145833  0.062500    576.000000
  0.437500  0.145833  0.062500    576.000000
  0.479167  0.145833  0.062500    576.000000
 -0.479167  0.145833  0.062500    576.000000
 -0.437500  0.145833  0.062500    576.000000
 -0.395833  0.145833  0.062500    576.000000
 -0.354167  0.145833  0.062500    576.000000
 -0.312500  0.145833  0.062500    576.000000
 -0.270833  0.145833  0.062500    576.000000
 -0.229167  0.145833  0.062500    576.000000
 -0.187500  0.145833  0.062500    576.000000
 -0.145833  0.145833  0.062500    576.000000
 -0.104167  0.145833  0.062500    576.000000
 -0.062500  0.145833  0.062500    576.000000
  0.187500  0.187500  0.062500    288.000000
  0.229167  0.187500  0.062500    576.000000
  0.270833  0.187500  0.062500    576.000000
  0.312500  0.187500  0.062500    576.000000
  0.354167  0.187500  0.062500    576.000000
  0.395833  0.187500  0.062500    576.000000
  0.437500  0.187500  0.062500    576.000000
  0.479167  0.187500  0.062500    576.000000
 -0.479167  0.187500  0.062500    576.000000
 -0.437500  0.187500  0.062500    576.000000
 -0.395833  0.187500  0.062500    576.000000
 -0.354167  0.187500  0.062500    576.000000
 -0.312500  0.187500  0.062500    576.000000
 -0.270833  0.187500  0.062500    576.000000
 -0.229167  0.187500  0.062500    576.000000
 -0.187500  0.187500  0.062500    576.000000
 -0.145833  0.187500  0.062500    576.000000
 -0.104167  0.187500  0.062500    576.000000
 -0.062500  0.187500  0.062500    576.000000
  0.229167  0.229167  0.062500    288.000000
  0.270833  0.229167  0.062500    576.000000
  0.312500  0.229167  0.062500    576.000000
  0.354167  0.229167  0.062500    576.000000
  0.395833  0.229167  0.062500    576.000000
  0.437500  0.229167  0.062500    576.000000
  0.479167  0.229167  0.062500    576.000000
 -0.479167  0.229167  0.062500    576.000000
 -0.437500  0.229167  0.062500    576.000000
 -0.395833  0.229167  0.062500    576.000000
 -0.354167  0.229167  0.062500    576.000000
 -0.312500  0.229167  0.062500    576.000000
 -0.270833  0.229167  0.062500    576.000000
 -0.229167  0.229167  0.062500    576.000000
 -0.187500  0.229167  0.062500    576.000000
 -0.145833  0.229167  0.062500    576.000000
 -0.104167  0.229167  0.062500    576.000000
 -0.062500  0.229167  0.062500    576.000000
  0.270833  0.270833  0.062500    288.000000
  0.312500  0.270833  0.062500    576.000000
  0.354167  0.270833  0.062500    576.000000
  0.395833  0.270833  0.062500    576.000000
  0.437500  0.270833  0.062500    576.000000
  0.479167  0.270833  0.062500    576.000000
 -0.479167  0.270833  0.062500    576.000000
 -0.437500  0.270833  0.062500    576.000000
 -0.395833  0.270833  0.062500    576.000000
 -0.354167  0.270833  0.062500    576.000000
 -0.312500  0.270833  0.062500    576.000000
 -0.270833  0.270833  0.062500    576.000000
 -0.229167  0.270833  0.062500    576.000000
 -0.187500  0.270833  0.062500    576.000000
 -0.145833  0.270833  0.062500    576.000000
 -0.104167  0.270833  0.062500    576.000000
 -0.062500  0.270833  0.062500    576.000000
  0.312500  0.312500  0.062500    288.000000
  0.354167  0.312500  0.062500    576.000000
  0.395833  0.312500  0.062500    576.000000
  0.437500  0.312500  0.062500    576.000000
  0.479167  0.312500  0.062500    576.000000
 -0.479167  0.312500  0.062500    576.000000
 -0.437500  0.312500  0.062500    576.000000
 -0.395833  0.312500  0.062500    576.000000
 -0.354167  0.312500  0.062500    576.000000
 -0.312500  0.312500  0.062500    576.000000
 -0.270833  0.312500  0.062500    576.000000
 -0.229167  0.312500  0.062500    576.000000
 -0.187500  0.312500  0.062500    576.000000
 -0.145833  0.312500  0.062500    576.000000
 -0.104167  0.312500  0.062500    576.000000
 -0.062500  0.312500  0.062500    576.000000
  0.354167  0.354167  0.062500    288.000000
  0.395833  0.354167  0.062500    576.000000
  0.437500  0.354167  0.062500    576.000000
  0.479167  0.354167  0.062500    576.000000
 -0.479167  0.354167  0.062500    576.000000
 -0.437500  0.354167  0.062500    576.000000
 -0.395833  0.354167  0.062500    576.000000
 -0.354167  0.354167  0.062500    576.000000
 -0.312500  0.354167  0.062500    576.000000
 -0.270833  0.354167  0.062500    576.000000
 -0.229167  0.354167  0.062500    576.000000
 -0.187500  0.354167  0.062500    576.000000
 -0.145833  0.354167  0.062500    576.000000
 -0.104167  0.354167  0.062500    576.000000
 -0.062500  0.354167  0.062500    576.000000
  0.395833  0.395833  0.062500    288.000000
  0.437500  0.395833  0.062500    576.000000
  0.479167  0.395833  0.062500    576.000000
 -0.479167  0.395833  0.062500    576.000000
 -0.437500  0.395833  0.062500    576.000000
 -0.395833  0.395833  0.062500    576.000000
 -0.354167  0.395833  0.062500    576.000000
 -0.312500  0.395833  0.062500    576.000000
 -0.270833  0.395833  0.062500    576.000000
 -0.229167  0.395833  0.062500    576.000000
 -0.187500  0.395833  0.062500    576.000000
 -0.145833  0.395833  0.062500    576.000000
 -0.104167  0.395833  0.062500    576.000000
 -0.062500  0.395833  0.062500    576.000000
  0.437500  0.437500  0.062500    288.000000
  0.479167  0.437500  0.062500    576.000000
 -0.479167  0.437500  0.062500    576.000000
 -0.437500  0.437500  0.062500    576.000000
 -0.395833  0.437500  0.062500    576.000000
 -0.354167  0.437500  0.062500    576.000000
 -0.312500  0.437500  0.062500    576.000000
 -0.270833  0.437500  0.062500    576.000000
 -0.229167  0.437500  0.062500    576.000000
 -0.187500  0.437500  0.062500    576.000000
 -0.145833  0.437500  0.062500    576.000000
 -0.104167  0.437500  0.062500    576.000000
 -0.062500  0.437500  0.062500    576.000000
  0.479167  0.479167  0.062500    288.000000
 -0.479167  0.479167  0.062500    576.000000
 -0.437500  0.479167  0.062500    576.000000
 -0.395833  0.479167  0.062500    576.000000
 -0.354167  0.479167  0.062500    576.000000
 -0.312500  0.479167  0.062500    576.000000
 -0.270833  0.479167  0.062500    576.000000
 -0.229167  0.479167  0.062500    576.000000
 -0.187500  0.479167  0.062500    576.000000
 -0.145833  0.479167  0.062500    576.000000
 -0.104167  0.479167  0.062500    576.000000
 -0.062500  0.479167  0.062500    576.000000
 -0.479167 -0.479167  0.062500    288.000000
 -0.437500 -0.479167  0.062500    576.000000
 -0.395833 -0.479167  0.062500    576.000000
 -0.354167 -0.479167  0.062500    576.000000
 -0.312500 -0.479167  0.062500    576.000000
 -0.270833 -0.479167  0.062500    576.000000
 -0.229167 -0.479167  0.062500    576.000000
 -0.187500 -0.479167  0.062500    576.000000
 -0.145833 -0.479167  0.062500    576.000000
 -0.104167 -0.479167  0.062500    576.000000
 -0.437500 -0.437500  0.062500    288.000000
 -0.395833 -0.437500  0.062500    576.000000
 -0.354167 -0.437500  0.062500    576.000000
 -0.312500 -0.437500  0.062500    576.000000
 -0.270833 -0.437500  0.062500    576.000000
 -0.229167 -0.437500  0.062500    576.000000
 -0.187500 -0.437500  0.062500    576.000000
 -0.145833 -0.437500  0.062500    576.000000
 -0.104167 -0.437500  0.062500    576.000000
 -0.395833 -0.395833  0.062500    288.000000
 -0.354167 -0.395833  0.062500    576.000000
 -0.312500 -0.395833  0.062500    576.000000
 -0.270833 -0.395833  0.062500    576.000000
 -0.229167 -0.395833  0.062500    576.000000
 -0.187500 -0.395833  0.062500    576.000000
 -0.145833 -0.395833  0.062500    576.000000
 -0.104167 -0.395833  0.062500    576.000000
 -0.354167 -0.354167  0.062500    288.000000
 -0.312500 -0.354167  0.062500    576.000000
 -0.270833 -0.354167  0.062500    576.000000
 -0.229167 -0.354167  0.062500    576.000000
 -0.187500 -0.354167  0.062500    576.000000
 -0.145833 -0.354167  0.062500    576.000000
 -0.104167 -0.354167  0.062500    576.000000
 -0.312500 -0.312500  0.062500    288.000000
 -0.270833 -0.312500  0.062500    576.000000
 -0.229167 -0.312500  0.062500    576.000000
 -0.187500 -0.312500  0.062500    576.000000
 -0.145833 -0.312500  0.062500    576.000000
 -0.104167 -0.312500  0.062500    576.000000
 -0.270833 -0.270833  0.062500    288.000000
 -0.229167 -0.270833  0.062500    576.000000
 -0.187500 -0.270833  0.062500    576.000000
 -0.145833 -0.270833  0.062500    576.000000
 -0.104167 -0.270833  0.062500    576.000000
 -0.229167 -0.229167  0.062500    288.000000
 -0.187500 -0.229167  0.062500    576.000000
 -0.145833 -0.229167  0.062500    576.000000
 -0.104167 -0.229167  0.062500    576.000000
 -0.187500 -0.187500  0.062500    288.000000
 -0.145833 -0.187500  0.062500    576.000000
 -0.104167 -0.187500  0.062500    576.000000
 -0.145833 -0.145833  0.062500    288.000000
 -0.104167 -0.145833  0.062500    576.000000
 -0.104167 -0.104167  0.062500    288.000000
  0.104167  0.104167  0.104167     96.000000
  0.145833  0.104167  0.104167    288.000000
  0.187500  0.104167  0.104167    288.000000
  0.229167  0.104167  0.104167    288.000000
  0.270833  0.104167  0.104167    288.000000
  0.312500  0.104167  0.104167    288.000000
  0.354167  0.104167  0.104167    288.000000
  0.395833  0.104167  0.104167    288.000000
  0.437500  0.104167  0.104167    288.000000
  0.479167  0.104167  0.104167    288.000000
 -0.479167  0.104167  0.104167    288.000000
 -0.437500  0.104167  0.104167    288.000000
 -0.395833  0.104167  0.104167    288.000000
 -0.354167  0.104167  0.104167    288.000000
 -0.312500  0.104167  0.104167    288.000000
 -0.270833  0.104167  0.104167    288.000000
 -0.229167  0.104167  0.104167    288.000000
 -0.187500  0.104167  0.104167    288.000000
 -0.145833  0.104167  0.104167    288.000000
 -0.104167  0.104167  0.104167    288.000000
  0.145833  0.145833  0.104167    288.000000
  0.187500  0.145833  0.104167    576.000000
  0.229167  0.145833  0.104167    576.000000
  0.270833  0.145833  0.104167    576.000000
  0.312500  0.145833  0.104167    576.000000
  0.354167  0.145833  0.104167    576.000000
  0.395833  0.145833  0.104167    576.000000
  0.437500  0.145833  0.104167    576.000000
  0.479167  0.145833  0.104167    576.000000
 -0.479167  0.145833  0.104167    576.000000
 -0.437500  0.145833  0.104167    576.000000
 -0.395833  0.145833  0.104167    576.000000
 -0.354167  0.145833  0.104167    576.000000
 -0.312500  0.145833  0.104167    576.000000
 -0.270833  0.145833  0.104167    576.000000
 -0.229167  0.145833  0.104167    576.000000
 -0.187500  0.145833  0.104167    576.000000
 -0.145833  0.145833  0.104167    576.000000
 -0.104167  0.145833  0.104167    576.000000
  0.187500  0.187500  0.104167    288.000000
  0.229167  0.187500  0.104167    576.000000
  0.270833  0.187500  0.104167    576.000000
  0.312500  0.187500  0.104167    576.000000
  0.354167  0.187500  0.104167    576.000000
  0.395833  0.187500  0.104167    576.000000
  0.437500  0.187500  0.104167    576.000000
  0.479167  0.187500  0.104167    576.000000
 -0.479167  0.187500  0.104167    576.000000
 -0.437500  0.187500  0.104167    576.000000
 -0.395833  0.187500  0.104167    576.000000
 -0.354167  0.187500  0.104167    576.000000
 -0.312500  0.187500  0.104167    576.000000
 -0.270833  0.187500  0.104167    576.000000
 -0.229167  0.187500  0.104167    576.000000
 -0.187500  0.187500  0.104167    576.000000
 -0.145833  0.187500  0.104167    576.000000
 -0.104167  0.187500  0.104167    576.000000
  0.229167  0.229167  0.104167    288.000000
  0.270833  0.229167  0.104167    576.000000
  0.312500  0.229167  0.104167    576.000000
  0.354167  0.229167  0.104167    576.000000
  0.395833  0.229167  0.104167    576.000000
  0.437500  0.229167  0.104167    576.000000
  0.479167  0.229167  0.104167    576.000000
 -0.479167  0.229167  0.104167    576.000000
 -0.437500  0.229167  0.104167    576.000000
 -0.395833  0.229167  0.104167    576.000000
 -0.354167  0.229167  0.104167    576.000000
 -0.312500  0.229167  0.104167    576.000000
 -0.270833  0.229167  0.104167    576.000000
 -0.229167  0.229167  0.104167    576.000000
 -0.187500  0.229167  0.104167    576.000000
 -0.145833  0.229167  0.104167    576.000000
 -0.104167  0.229167  0.104167    576.000000
  0.270833  0.270833  0.104167    288.000000
  0.312500  0.270833  0.104167    576.000000
  0.354167  0.270833  0.104167    576.000000
  0.395833  0.270833  0.104167    576.000000
  0.437500  0.270833  0.104167    576.000000
  0.479167  0.270833  0.104167    576.000000
 -0.479167  0.270833  0.104167    576.000000
 -0.437500  0.270833  0.104167    576.000000
 -0.395833  0.270833  0.104167    576.000000
 -0.354167  0.270833  0.104167    576.000000
 -0.312500  0.270833  0.104167    576.000000
 -0.270833  0.270833  0.104167    576.000000
 -0.229167  0.270833  0.104167    576.000000
 -0.187500  0.270833  0.104167    576.000000
 -0.145833  0.270833  0.104167    576.000000
 -0.104167  0.270833  0.104167    576.000000
  0.312500  0.312500  0.104167    288.000000
  0.354167  0.312500  0.104167    576.000000
  0.395833  0.312500  0.104167    576.000000
  0.437500  0.312500  0.104167    576.000000
  0.479167  0.312500  0.104167    576.000000
 -0.479167  0.312500  0.104167    576.000000
 -0.437500  0.312500  0.104167    576.000000
 -0.395833  0.312500  0.104167    576.000000
 -0.354167  0.312500  0.104167    576.000000
 -0.312500  0.312500  0.104167    576.000000
 -0.270833  0.312500  0.104167    576.000000
 -0.229167  0.312500  0.104167    576.000000
 -0.187500  0.312500  0.104167    576.000000
 -0.145833  0.312500  0.104167    576.000000
 -0.104167  0.312500  0.104167    576.000000
  0.354167  0.354167  0.104167    288.000000
  0.395833  0.354167  0.104167    576.000000
  0.437500  0.354167  0.104167    576.000000
  0.479167  0.354167  0.104167    576.000000
 -0.479167  0.354167  0.104167    576.000000
 -0.437500  0.354167  0.104167    576.000000
 -0.395833  0.354167  0.104167    576.000000
 -0.354167  0.354167  0.104167    576.000000
 -0.312500  0.354167  0.104167    576.000000
 -0.270833  0.354167  0.104167    576.000000
 -0.229167  0.354167  0.104167    576.000000
 -0.187500  0.354167  0.104167    576.000000
 -0.145833  0.354167  0.104167    576.000000
 -0.104167  0.354167  0.104167    576.000000
  0.395833  0.395833  0.104167    288.000000
  0.437500  0.395833  0.104167    576.000000
  0.479167  0.395833  0.104167    576.000000
 -0.479167  0.395833  0.104167    576.000000
 -0.437500  0.395833  0.104167    576.000000
 -0.395833  0.395833  0.104167    576.000000
 -0.354167  0.395833  0.104167    576.000000
 -0.312500  0.395833  0.104167    576.000000
 -0.270833  0.395833  0.104167    576.000000
 -0.229167  0.395833  0.104167    576.000000
 -0.187500  0.395833  0.104167    576.000000
 -0.145833  0.395833  0.104167    576.000000
 -0.104167  0.395833  0.104167    576.000000
  0.437500  0.437500  0.104167    288.000000
  0.479167  0.437500  0.104167    576.000000
 -0.479167  0.437500  0.104167    576.000000
 -0.437500  0.437500  0.104167    576.000000
 -0.395833  0.437500  0.104167    576.000000
 -0.354167  0.437500  0.104167    576.000000
 -0.312500  0.437500  0.104167    576.000000
 -0.270833  0.437500  0.104167    576.000000
 -0.229167  0.437500  0.104167    576.000000
 -0.187500  0.437500  0.104167    576.000000
 -0.145833  0.437500  0.104167    576.000000
 -0.104167  0.437500  0.104167    576.000000
  0.479167  0.479167  0.104167    288.000000
 -0.479167  0.479167  0.104167    576.000000
 -0.437500  0.479167  0.104167    576.000000
 -0.395833  0.479167  0.104167    576.000000
 -0.354167  0.479167  0.104167    576.000000
 -0.312500  0.479167  0.104167    576.000000
 -0.270833  0.479167  0.104167    576.000000
 -0.229167  0.479167  0.104167    576.000000
 -0.187500  0.479167  0.104167    576.000000
 -0.145833  0.479167  0.104167    576.000000
 -0.104167  0.479167  0.104167    576.000000
 -0.479167 -0.479167  0.104167    288.000000
 -0.437500 -0.479167  0.104167    576.000000
 -0.395833 -0.479167  0.104167    576.000000
 -0.354167 -0.479167  0.104167    576.000000
 -0.312500 -0.479167  0.104167    576.000000
 -0.270833 -0.479167  0.104167    576.000000
 -0.229167 -0.479167  0.104167    576.000000
 -0.187500 -0.479167  0.104167    576.000000
 -0.145833 -0.479167  0.104167    576.000000
 -0.437500 -0.437500  0.104167    288.000000
 -0.395833 -0.437500  0.104167    576.000000
 -0.354167 -0.437500  0.104167    576.000000
 -0.312500 -0.437500  0.104167    576.000000
 -0.270833 -0.437500  0.104167    576.000000
 -0.229167 -0.437500  0.104167    576.000000
 -0.187500 -0.437500  0.104167    576.000000
 -0.145833 -0.437500  0.104167    576.000000
 -0.395833 -0.395833  0.104167    288.000000
 -0.354167 -0.395833  0.104167    576.000000
 -0.312500 -0.395833  0.104167    576.000000
 -0.270833 -0.395833  0.104167    576.000000
 -0.229167 -0.395833  0.104167    576.000000
 -0.187500 -0.395833  0.104167    576.000000
 -0.145833 -0.395833  0.104167    576.000000
 -0.354167 -0.354167  0.104167    288.000000
 -0.312500 -0.354167  0.104167    576.000000
 -0.270833 -0.354167  0.104167    576.000000
 -0.229167 -0.354167  0.104167    576.000000
 -0.187500 -0.354167  0.104167    576.000000
 -0.145833 -0.354167  0.104167    576.000000
 -0.312500 -0.312500  0.104167    288.000000
 -0.270833 -0.312500  0.104167    576.000000
 -0.229167 -0.312500  0.104167    576.000000
 -0.187500 -0.312500  0.104167    576.000000
 -0.145833 -0.312500  0.104167    576.000000
 -0.270833 -0.270833  0.104167    288.000000
 -0.229167 -0.270833  0.104167    576.000000
 -0.187500 -0.270833  0.104167    576.000000
 -0.145833 -0.270833  0.104167    576.000000
 -0.229167 -0.229167  0.104167    288.000000
 -0.187500 -0.229167  0.104167    576.000000
 -0.145833 -0.229167  0.104167    576.000000
 -0.187500 -0.187500  0.104167    288.000000
 -0.145833 -0.187500  0.104167    576.000000
 -0.145833 -0.145833  0.104167    288.000000
  0.145833  0.145833  0.145833     96.000000
  0.187500  0.145833  0.145833    288.000000
  0.229167  0.145833  0.145833    288.000000
  0.270833  0.145833  0.145833    288.000000
  0.312500  0.145833  0.145833    288.000000
  0.354167  0.145833  0.145833    288.000000
  0.395833  0.145833  0.145833    288.000000
  0.437500  0.145833  0.145833    288.000000
  0.479167  0.145833  0.145833    288.000000
 -0.479167  0.145833  0.145833    288.000000
 -0.437500  0.145833  0.145833    288.000000
 -0.395833  0.145833  0.145833    288.000000
 -0.354167  0.145833  0.145833    288.000000
 -0.312500  0.145833  0.145833    288.000000
 -0.270833  0.145833  0.145833    288.000000
 -0.229167  0.145833  0.145833    288.000000
 -0.187500  0.145833  0.145833    288.000000
 -0.145833  0.145833  0.145833    288.000000
  0.187500  0.187500  0.145833    288.000000
  0.229167  0.187500  0.145833    576.000000
  0.270833  0.187500  0.145833    576.000000
  0.312500  0.187500  0.145833    576.000000
  0.354167  0.187500  0.145833    576.000000
  0.395833  0.187500  0.145833    576.000000
  0.437500  0.187500  0.145833    576.000000
  0.479167  0.187500  0.145833    576.000000
 -0.479167  0.187500  0.145833    576.000000
 -0.437500  0.187500  0.145833    576.000000
 -0.395833  0.187500  0.145833    576.000000
 -0.354167  0.187500  0.145833    576.000000
 -0.312500  0.187500  0.145833    576.000000
 -0.270833  0.187500  0.145833    576.000000
 -0.229167  0.187500  0.145833    576.000000
 -0.187500  0.187500  0.145833    576.000000
 -0.145833  0.187500  0.145833    576.000000
  0.229167  0.229167  0.145833    288.000000
  0.270833  0.229167  0.145833    576.000000
  0.312500  0.229167  0.145833    576.000000
  0.354167  0.229167  0.145833    576.000000
  0.395833  0.229167  0.145833    576.000000
  0.437500  0.229167  0.145833    576.000000
  0.479167  0.229167  0.145833    576.000000
 -0.479167  0.229167  0.145833    576.000000
 -0.437500  0.229167  0.145833    576.000000
 -0.395833  0.229167  0.145833    576.000000
 -0.354167  0.229167  0.145833    576.000000
 -0.312500  0.229167  0.145833    576.000000
 -0.270833  0.229167  0.145833    576.000000
 -0.229167  0.229167  0.145833    576.000000
 -0.187500  0.229167  0.145833    576.000000
 -0.145833  0.229167  0.145833    576.000000
  0.270833  0.270833  0.145833    288.000000
  0.312500  0.270833  0.145833    576.000000
  0.354167  0.270833  0.145833    576.000000
  0.395833  0.270833  0.145833    576.000000
  0.437500  0.270833  0.145833    576.000000
  0.479167  0.270833  0.145833    576.000000
 -0.479167  0.270833  0.145833    576.000000
 -0.437500  0.270833  0.145833    576.000000
 -0.395833  0.270833  0.145833    576.000000
 -0.354167  0.270833  0.145833    576.000000
 -0.312500  0.270833  0.145833    576.000000
 -0.270833  0.270833  0.145833    576.000000
 -0.229167  0.270833  0.145833    576.000000
 -0.187500  0.270833  0.145833    576.000000
 -0.145833  0.270833  0.145833    576.000000
  0.312500  0.312500  0.145833    288.000000
  0.354167  0.312500  0.145833    576.000000
  0.395833  0.312500  0.145833    576.000000
  0.437500  0.312500  0.145833    576.000000
  0.479167  0.312500  0.145833    576.000000
 -0.479167  0.312500  0.145833    576.000000
 -0.437500  0.312500  0.145833    576.000000
 -0.395833  0.312500  0.145833    576.000000
 -0.354167  0.312500  0.145833    576.000000
 -0.312500  0.312500  0.145833    576.000000
 -0.270833  0.312500  0.145833    576.000000
 -0.229167  0.312500  0.145833    576.000000
 -0.187500  0.312500  0.145833    576.000000
 -0.145833  0.312500  0.145833    576.000000
  0.354167  0.354167  0.145833    288.000000
  0.395833  0.354167  0.145833    576.000000
  0.437500  0.354167  0.145833    576.000000
  0.479167  0.354167  0.145833    576.000000
 -0.479167  0.354167  0.145833    576.000000
 -0.437500  0.354167  0.145833    576.000000
 -0.395833  0.354167  0.145833    576.000000
 -0.354167  0.354167  0.145833    576.000000
 -0.312500  0.354167  0.145833    576.000000
 -0.270833  0.354167  0.145833    576.000000
 -0.229167  0.354167  0.145833    576.000000
 -0.187500  0.354167  0.145833    576.000000
 -0.145833  0.354167  0.145833    576.000000
  0.395833  0.395833  0.145833    288.000000
  0.437500  0.395833  0.145833    576.000000
  0.479167  0.395833  0.145833    576.000000
 -0.479167  0.395833  0.145833    576.000000
 -0.437500  0.395833  0.145833    576.000000
 -0.395833  0.395833  0.145833    576.000000
 -0.354167  0.395833  0.145833    576.000000
 -0.312500  0.395833  0.145833    576.000000
 -0.270833  0.395833  0.145833    576.000000
 -0.229167  0.395833  0.145833    576.000000
 -0.187500  0.395833  0.145833    576.000000
 -0.145833  0.395833  0.145833    576.000000
  0.437500  0.437500  0.145833    288.000000
  0.479167  0.437500  0.145833    576.000000
 -0.479167  0.437500  0.145833    576.000000
 -0.437500  0.437500  0.145833    576.000000
 -0.395833  0.437500  0.145833    576.000000
 -0.354167  0.437500  0.145833    576.000000
 -0.312500  0.437500  0.145833    576.000000
 -0.270833  0.437500  0.145833    576.000000
 -0.229167  0.437500  0.145833    576.000000
 -0.187500  0.437500  0.145833    576.000000
 -0.145833  0.437500  0.145833    576.000000
  0.479167  0.479167  0.145833    288.000000
 -0.479167  0.479167  0.145833    576.000000
 -0.437500  0.479167  0.145833    576.000000
 -0.395833  0.479167  0.145833    576.000000
 -0.354167  0.479167  0.145833    576.000000
 -0.312500  0.479167  0.145833    576.000000
 -0.270833  0.479167  0.145833    576.000000
 -0.229167  0.479167  0.145833    576.000000
 -0.187500  0.479167  0.145833    576.000000
 -0.145833  0.479167  0.145833    576.000000
 -0.479167 -0.479167  0.145833    288.000000
 -0.437500 -0.479167  0.145833    576.000000
 -0.395833 -0.479167  0.145833    576.000000
 -0.354167 -0.479167  0.145833    576.000000
 -0.312500 -0.479167  0.145833    576.000000
 -0.270833 -0.479167  0.145833    576.000000
 -0.229167 -0.479167  0.145833    576.000000
 -0.187500 -0.479167  0.145833    576.000000
 -0.437500 -0.437500  0.145833    288.000000
 -0.395833 -0.437500  0.145833    576.000000
 -0.354167 -0.437500  0.145833    576.000000
 -0.312500 -0.437500  0.145833    576.000000
 -0.270833 -0.437500  0.145833    576.000000
 -0.229167 -0.437500  0.145833    576.000000
 -0.187500 -0.437500  0.145833    576.000000
 -0.395833 -0.395833  0.145833    288.000000
 -0.354167 -0.395833  0.145833    576.000000
 -0.312500 -0.395833  0.145833    576.000000
 -0.270833 -0.395833  0.145833    576.000000
 -0.229167 -0.395833  0.145833    576.000000
 -0.187500 -0.395833  0.145833    576.000000
 -0.354167 -0.354167  0.145833    288.000000
 -0.312500 -0.354167  0.145833    576.000000
 -0.270833 -0.354167  0.145833    576.000000
 -0.229167 -0.354167  0.145833    576.000000
 -0.187500 -0.354167  0.145833    576.000000
 -0.312500 -0.312500  0.145833    288.000000
 -0.270833 -0.312500  0.145833    576.000000
 -0.229167 -0.312500  0.145833    576.000000
 -0.187500 -0.312500  0.145833    576.000000
 -0.270833 -0.270833  0.145833    288.000000
 -0.229167 -0.270833  0.145833    576.000000
 -0.187500 -0.270833  0.145833    576.000000
 -0.229167 -0.229167  0.145833    288.000000
 -0.187500 -0.229167  0.145833    576.000000
 -0.187500 -0.187500  0.145833    288.000000
  0.187500  0.187500  0.187500     96.000000
  0.229167  0.187500  0.187500    288.000000
  0.270833  0.187500  0.187500    288.000000
  0.312500  0.187500  0.187500    288.000000
  0.354167  0.187500  0.187500    288.000000
  0.395833  0.187500  0.187500    288.000000
  0.437500  0.187500  0.187500    288.000000
  0.479167  0.187500  0.187500    288.000000
 -0.479167  0.187500  0.187500    288.000000
 -0.437500  0.187500  0.187500    288.000000
 -0.395833  0.187500  0.187500    288.000000
 -0.354167  0.187500  0.187500    288.000000
 -0.312500  0.187500  0.187500    288.000000
 -0.270833  0.187500  0.187500    288.000000
 -0.229167  0.187500  0.187500    288.000000
 -0.187500  0.187500  0.187500    288.000000
  0.229167  0.229167  0.187500    288.000000
  0.270833  0.229167  0.187500    576.000000
  0.312500  0.229167  0.187500    576.000000
  0.354167  0.229167  0.187500    576.000000
  0.395833  0.229167  0.187500    576.000000
  0.437500  0.229167  0.187500    576.000000
  0.479167  0.229167  0.187500    576.000000
 -0.479167  0.229167  0.187500    576.000000
 -0.437500  0.229167  0.187500    576.000000
 -0.395833  0.229167  0.187500    576.000000
 -0.354167  0.229167  0.187500    576.000000
 -0.312500  0.229167  0.187500    576.000000
 -0.270833  0.229167  0.187500    576.000000
 -0.229167  0.229167  0.187500    576.000000
 -0.187500  0.229167  0.187500    576.000000
  0.270833  0.270833  0.187500    288.000000
  0.312500  0.270833  0.187500    576.000000
  0.354167  0.270833  0.187500    576.000000
  0.395833  0.270833  0.187500    576.000000
  0.437500  0.270833  0.187500    576.000000
  0.479167  0.270833  0.187500    576.000000
 -0.479167  0.270833  0.187500    576.000000
 -0.437500  0.270833  0.187500    576.000000
 -0.395833  0.270833  0.187500    576.000000
 -0.354167  0.270833  0.187500    576.000000
 -0.312500  0.270833  0.187500    576.000000
 -0.270833  0.270833  0.187500    576.000000
 -0.229167  0.270833  0.187500    576.000000
 -0.187500  0.270833  0.187500    576.000000
  0.312500  0.312500  0.187500    288.000000
  0.354167  0.312500  0.187500    576.000000
  0.395833  0.312500  0.187500    576.000000
  0.437500  0.312500  0.187500    576.000000
  0.479167  0.312500  0.187500    576.000000
 -0.479167  0.312500  0.187500    576.000000
 -0.437500  0.312500  0.187500    576.000000
 -0.395833  0.312500  0.187500    576.000000
 -0.354167  0.312500  0.187500    576.000000
 -0.312500  0.312500  0.187500    576.000000
 -0.270833  0.312500  0.187500    576.000000
 -0.229167  0.312500  0.187500    576.000000
 -0.187500  0.312500  0.187500    576.000000
  0.354167  0.354167  0.187500    288.000000
  0.395833  0.354167  0.187500    576.000000
  0.437500  0.354167  0.187500    576.000000
  0.479167  0.354167  0.187500    576.000000
 -0.479167  0.354167  0.187500    576.000000
 -0.437500  0.354167  0.187500    576.000000
 -0.395833  0.354167  0.187500    576.000000
 -0.354167  0.354167  0.187500    576.000000
 -0.312500  0.354167  0.187500    576.000000
 -0.270833  0.354167  0.187500    576.000000
 -0.229167  0.354167  0.187500    576.000000
 -0.187500  0.354167  0.187500    576.000000
  0.395833  0.395833  0.187500    288.000000
  0.437500  0.395833  0.187500    576.000000
  0.479167  0.395833  0.187500    576.000000
 -0.479167  0.395833  0.187500    576.000000
 -0.437500  0.395833  0.187500    576.000000
 -0.395833  0.395833  0.187500    576.000000
 -0.354167  0.395833  0.187500    576.000000
 -0.312500  0.395833  0.187500    576.000000
 -0.270833  0.395833  0.187500    576.000000
 -0.229167  0.395833  0.187500    576.000000
 -0.187500  0.395833  0.187500    576.000000
  0.437500  0.437500  0.187500    288.000000
  0.479167  0.437500  0.187500    576.000000
 -0.479167  0.437500  0.187500    576.000000
 -0.437500  0.437500  0.187500    576.000000
 -0.395833  0.437500  0.187500    576.000000
 -0.354167  0.437500  0.187500    576.000000
 -0.312500  0.437500  0.187500    576.000000
 -0.270833  0.437500  0.187500    576.000000
 -0.229167  0.437500  0.187500    576.000000
 -0.187500  0.437500  0.187500    576.000000
  0.479167  0.479167  0.187500    288.000000
 -0.479167  0.479167  0.187500    576.000000
 -0.437500  0.479167  0.187500    576.000000
 -0.395833  0.479167  0.187500    576.000000
 -0.354167  0.479167  0.187500    576.000000
 -0.312500  0.479167  0.187500    576.000000
 -0.270833  0.479167  0.187500    576.000000
 -0.229167  0.479167  0.187500    576.000000
 -0.187500  0.479167  0.187500    576.000000
 -0.479167 -0.479167  0.187500    288.000000
 -0.437500 -0.479167  0.187500    576.000000
 -0.395833 -0.479167  0.187500    576.000000
 -0.354167 -0.479167  0.187500    576.000000
 -0.312500 -0.479167  0.187500    576.000000
 -0.270833 -0.479167  0.187500    576.000000
 -0.229167 -0.479167  0.187500    576.000000
 -0.437500 -0.437500  0.187500    288.000000
 -0.395833 -0.437500  0.187500    576.000000
 -0.354167 -0.437500  0.187500    576.000000
 -0.312500 -0.437500  0.187500    576.000000
 -0.270833 -0.437500  0.187500    576.000000
 -0.229167 -0.437500  0.187500    576.000000
 -0.395833 -0.395833  0.187500    288.000000
 -0.354167 -0.395833  0.187500    576.000000
 -0.312500 -0.395833  0.187500    576.000000
 -0.270833 -0.395833  0.187500    576.000000
 -0.229167 -0.395833  0.187500    576.000000
 -0.354167 -0.354167  0.187500    288.000000
 -0.312500 -0.354167  0.187500    576.000000
 -0.270833 -0.354167  0.187500    576.000000
 -0.229167 -0.354167  0.187500    576.000000
 -0.312500 -0.312500  0.187500    288.000000
 -0.270833 -0.312500  0.187500    576.000000
 -0.229167 -0.312500  0.187500    576.000000
 -0.270833 -0.270833  0.187500    288.000000
 -0.229167 -0.270833  0.187500    576.000000
 -0.229167 -0.229167  0.187500    288.000000
  0.229167  0.229167  0.229167     96.000000
  0.270833  0.229167  0.229167    288.000000
  0.312500  0.229167  0.229167    288.000000
  0.354167  0.229167  0.229167    288.000000
  0.395833  0.229167  0.229167    288.000000
  0.437500  0.229167  0.229167    288.000000
  0.479167  0.229167  0.229167    288.000000
 -0.479167  0.229167  0.229167    288.000000
 -0.437500  0.229167  0.229167    288.000000
 -0.395833  0.229167  0.229167    288.000000
 -0.354167  0.229167  0.229167    288.000000
 -0.312500  0.229167  0.229167    288.000000
 -0.270833  0.229167  0.229167    288.000000
 -0.229167  0.229167  0.229167    288.000000
  0.270833  0.270833  0.229167    288.000000
  0.312500  0.270833  0.229167    576.000000
  0.354167  0.270833  0.229167    576.000000
  0.395833  0.270833  0.229167    576.000000
  0.437500  0.270833  0.229167    576.000000
  0.479167  0.270833  0.229167    576.000000
 -0.479167  0.270833  0.229167    576.000000
 -0.437500  0.270833  0.229167    576.000000
 -0.395833  0.270833  0.229167    576.000000
 -0.354167  0.270833  0.229167    576.000000
 -0.312500  0.270833  0.229167    576.000000
 -0.270833  0.270833  0.229167    576.000000
 -0.229167  0.270833  0.229167    576.000000
  0.312500  0.312500  0.229167    288.000000
  0.354167  0.312500  0.229167    576.000000
  0.395833  0.312500  0.229167    576.000000
  0.437500  0.312500  0.229167    576.000000
  0.479167  0.312500  0.229167    576.000000
 -0.479167  0.312500  0.229167    576.000000
 -0.437500  0.312500  0.229167    576.000000
 -0.395833  0.312500  0.229167    576.000000
 -0.354167  0.312500  0.229167    576.000000
 -0.312500  0.312500  0.229167    576.000000
 -0.270833  0.312500  0.229167    576.000000
 -0.229167  0.312500  0.229167    576.000000
  0.354167  0.354167  0.229167    288.000000
  0.395833  0.354167  0.229167    576.000000
  0.437500  0.354167  0.229167    576.000000
  0.479167  0.354167  0.229167    576.000000
 -0.479167  0.354167  0.229167    576.000000
 -0.437500  0.354167  0.229167    576.000000
 -0.395833  0.354167  0.229167    576.000000
 -0.354167  0.354167  0.229167    576.000000
 -0.312500  0.354167  0.229167    576.000000
 -0.270833  0.354167  0.229167    576.000000
 -0.229167  0.354167  0.229167    576.000000
  0.395833  0.395833  0.229167    288.000000
  0.437500  0.395833  0.229167    576.000000
  0.479167  0.395833  0.229167    576.000000
 -0.479167  0.395833  0.229167    576.000000
 -0.437500  0.395833  0.229167    576.000000
 -0.395833  0.395833  0.229167    576.000000
 -0.354167  0.395833  0.229167    576.000000
 -0.312500  0.395833  0.229167    576.000000
 -0.270833  0.395833  0.229167    576.000000
 -0.229167  0.395833  0.229167    576.000000
  0.437500  0.437500  0.229167    288.000000
  0.479167  0.437500  0.229167    576.000000
 -0.479167  0.437500  0.229167    576.000000
 -0.437500  0.437500  0.229167    576.000000
 -0.395833  0.437500  0.229167    576.000000
 -0.354167  0.437500  0.229167    576.000000
 -0.312500  0.437500  0.229167    576.000000
 -0.270833  0.437500  0.229167    576.000000
 -0.229167  0.437500  0.229167    576.000000
  0.479167  0.479167  0.229167    288.000000
 -0.479167  0.479167  0.229167    576.000000
 -0.437500  0.479167  0.229167    576.000000
 -0.395833  0.479167  0.229167    576.000000
 -0.354167  0.479167  0.229167    576.000000
 -0.312500  0.479167  0.229167    576.000000
 -0.270833  0.479167  0.229167    576.000000
 -0.229167  0.479167  0.229167    576.000000
 -0.479167 -0.479167  0.229167    288.000000
 -0.437500 -0.479167  0.229167    576.000000
 -0.395833 -0.479167  0.229167    576.000000
 -0.354167 -0.479167  0.229167    576.000000
 -0.312500 -0.479167  0.229167    576.000000
 -0.270833 -0.479167  0.229167    576.000000
 -0.437500 -0.437500  0.229167    288.000000
 -0.395833 -0.437500  0.229167    576.000000
 -0.354167 -0.437500  0.229167    576.000000
 -0.312500 -0.437500  0.229167    576.000000
 -0.270833 -0.437500  0.229167    576.000000
 -0.395833 -0.395833  0.229167    288.000000
 -0.354167 -0.395833  0.229167    576.000000
 -0.312500 -0.395833  0.229167    576.000000
 -0.270833 -0.395833  0.229167    576.000000
 -0.354167 -0.354167  0.229167    288.000000
 -0.312500 -0.354167  0.229167    576.000000
 -0.270833 -0.354167  0.229167    576.000000
 -0.312500 -0.312500  0.229167    288.000000
 -0.270833 -0.312500  0.229167    576.000000
 -0.270833 -0.270833  0.229167    288.000000
  0.270833  0.270833  0.270833     96.000000
  0.312500  0.270833  0.270833    288.000000
  0.354167  0.270833  0.270833    288.000000
  0.395833  0.270833  0.270833    288.000000
  0.437500  0.270833  0.270833    288.000000
  0.479167  0.270833  0.270833    288.000000
 -0.479167  0.270833  0.270833    288.000000
 -0.437500  0.270833  0.270833    288.000000
 -0.395833  0.270833  0.270833    288.000000
 -0.354167  0.270833  0.270833    288.000000
 -0.312500  0.270833  0.270833    288.000000
 -0.270833  0.270833  0.270833    288.000000
  0.312500  0.312500  0.270833    288.000000
  0.354167  0.312500  0.270833    576.000000
  0.395833  0.312500  0.270833    576.000000
  0.437500  0.312500  0.270833    576.000000
  0.479167  0.312500  0.270833    576.000000
 -0.479167  0.312500  0.270833    576.000000
 -0.437500  0.312500  0.270833    576.000000
 -0.395833  0.312500  0.270833    576.000000
 -0.354167  0.312500  0.270833    576.000000
 -0.312500  0.312500  0.270833    576.000000
 -0.270833  0.312500  0.270833    576.000000
  0.354167  0.354167  0.270833    288.000000
  0.395833  0.354167  0.270833    576.000000
  0.437500  0.354167  0.270833    576.000000
  0.479167  0.354167  0.270833    576.000000
 -0.479167  0.354167  0.270833    576.000000
 -0.437500  0.354167  0.270833    576.000000
 -0.395833  0.354167  0.270833    576.000000
 -0.354167  0.354167  0.270833    576.000000
 -0.312500  0.354167  0.270833    576.000000
 -0.270833  0.354167  0.270833    576.000000
  0.395833  0.395833  0.270833    288.000000
  0.437500  0.395833  0.270833    576.000000
  0.479167  0.395833  0.270833    576.000000
 -0.479167  0.395833  0.270833    576.000000
 -0.437500  0.395833  0.270833    576.000000
 -0.395833  0.395833  0.270833    576.000000
 -0.354167  0.395833  0.270833    576.000000
 -0.312500  0.395833  0.270833    576.000000
 -0.270833  0.395833  0.270833    576.000000
  0.437500  0.437500  0.270833    288.000000
  0.479167  0.437500  0.270833    576.000000
 -0.479167  0.437500  0.270833    576.000000
 -0.437500  0.437500  0.270833    576.000000
 -0.395833  0.437500  0.270833    576.000000
 -0.354167  0.437500  0.270833    576.000000
 -0.312500  0.437500  0.270833    576.000000
 -0.270833  0.437500  0.270833    576.000000
  0.479167  0.479167  0.270833    288.000000
 -0.479167  0.479167  0.270833    576.000000
 -0.437500  0.479167  0.270833    576.000000
 -0.395833  0.479167  0.270833    576.000000
 -0.354167  0.479167  0.270833    576.000000
 -0.312500  0.479167  0.270833    576.000000
 -0.270833  0.479167  0.270833    576.000000
 -0.479167 -0.479167  0.270833    288.000000
 -0.437500 -0.479167  0.270833    576.000000
 -0.395833 -0.479167  0.270833    576.000000
 -0.354167 -0.479167  0.270833    576.000000
 -0.312500 -0.479167  0.270833    576.000000
 -0.437500 -0.437500  0.270833    288.000000
 -0.395833 -0.437500  0.270833    576.000000
 -0.354167 -0.437500  0.270833    576.000000
 -0.312500 -0.437500  0.270833    576.000000
 -0.395833 -0.395833  0.270833    288.000000
 -0.354167 -0.395833  0.270833    576.000000
 -0.312500 -0.395833  0.270833    576.000000
 -0.354167 -0.354167  0.270833    288.000000
 -0.312500 -0.354167  0.270833    576.000000
 -0.312500 -0.312500  0.270833    288.000000
  0.312500  0.312500  0.312500     96.000000
  0.354167  0.312500  0.312500    288.000000
  0.395833  0.312500  0.312500    288.000000
  0.437500  0.312500  0.312500    288.000000
  0.479167  0.312500  0.312500    288.000000
 -0.479167  0.312500  0.312500    288.000000
 -0.437500  0.312500  0.312500    288.000000
 -0.395833  0.312500  0.312500    288.000000
 -0.354167  0.312500  0.312500    288.000000
 -0.312500  0.312500  0.312500    288.000000
  0.354167  0.354167  0.312500    288.000000
  0.395833  0.354167  0.312500    576.000000
  0.437500  0.354167  0.312500    576.000000
  0.479167  0.354167  0.312500    576.000000
 -0.479167  0.354167  0.312500    576.000000
 -0.437500  0.354167  0.312500    576.000000
 -0.395833  0.354167  0.312500    576.000000
 -0.354167  0.354167  0.312500    576.000000
 -0.312500  0.354167  0.312500    576.000000
  0.395833  0.395833  0.312500    288.000000
  0.437500  0.395833  0.312500    576.000000
  0.479167  0.395833  0.312500    576.000000
 -0.479167  0.395833  0.312500    576.000000
 -0.437500  0.395833  0.312500    576.000000
 -0.395833  0.395833  0.312500    576.000000
 -0.354167  0.395833  0.312500    576.000000
 -0.312500  0.395833  0.312500    576.000000
  0.437500  0.437500  0.312500    288.000000
  0.479167  0.437500  0.312500    576.000000
 -0.479167  0.437500  0.312500    576.000000
 -0.437500  0.437500  0.312500    576.000000
 -0.395833  0.437500  0.312500    576.000000
 -0.354167  0.437500  0.312500    576.000000
 -0.312500  0.437500  0.312500    576.000000
  0.479167  0.479167  0.312500    288.000000
 -0.479167  0.479167  0.312500    576.000000
 -0.437500  0.479167  0.312500    576.000000
 -0.395833  0.479167  0.312500    576.000000
 -0.354167  0.479167  0.312500    576.000000
 -0.312500  0.479167  0.312500    576.000000
 -0.479167 -0.479167  0.312500    288.000000
 -0.437500 -0.479167  0.312500    576.000000
 -0.395833 -0.479167  0.312500    576.000000
 -0.354167 -0.479167  0.312500    576.000000
 -0.437500 -0.437500  0.312500    288.000000
 -0.395833 -0.437500  0.312500    576.000000
 -0.354167 -0.437500  0.312500    576.000000
 -0.395833 -0.395833  0.312500    288.000000
 -0.354167 -0.395833  0.312500    576.000000
 -0.354167 -0.354167  0.312500    288.000000
  0.354167  0.354167  0.354167     96.000000
  0.395833  0.354167  0.354167    288.000000
  0.437500  0.354167  0.354167    288.000000
  0.479167  0.354167  0.354167    288.000000
 -0.479167  0.354167  0.354167    288.000000
 -0.437500  0.354167  0.354167    288.000000
 -0.395833  0.354167  0.354167    288.000000
 -0.354167  0.354167  0.354167    288.000000
  0.395833  0.395833  0.354167    288.000000
  0.437500  0.395833  0.354167    576.000000
  0.479167  0.395833  0.354167    576.000000
 -0.479167  0.395833  0.354167    576.000000
 -0.437500  0.395833  0.354167    576.000000
 -0.395833  0.395833  0.354167    576.000000
 -0.354167  0.395833  0.354167    576.000000
  0.437500  0.437500  0.354167    288.000000
  0.479167  0.437500  0.354167    576.000000
 -0.479167  0.437500  0.354167    576.000000
 -0.437500  0.437500  0.354167    576.000000
 -0.395833  0.437500  0.354167    576.000000
 -0.354167  0.437500  0.354167    576.000000
  0.479167  0.479167  0.354167    288.000000
 -0.479167  0.479167  0.354167    576.000000
 -0.437500  0.479167  0.354167    576.000000
 -0.395833  0.479167  0.354167    576.000000
 -0.354167  0.479167  0.354167    576.000000
 -0.479167 -0.479167  0.354167    288.000000
 -0.437500 -0.479167  0.354167    576.000000
 -0.395833 -0.479167  0.354167    576.000000
 -0.437500 -0.437500  0.354167    288.000000
 -0.395833 -0.437500  0.354167    576.000000
 -0.395833 -0.395833  0.354167    288.000000
  0.395833  0.395833  0.395833     96.000000
  0.437500  0.395833  0.395833    288.000000
  0.479167  0.395833  0.395833    288.000000
 -0.479167  0.395833  0.395833    288.000000
 -0.437500  0.395833  0.395833    288.000000
 -0.395833  0.395833  0.395833    288.000000
  0.437500  0.437500  0.395833    288.000000
  0.479167  0.437500  0.395833    576.000000
 -0.479167  0.437500  0.395833    576.000000
 -0.437500  0.437500  0.395833    576.000000
 -0.395833  0.437500  0.395833    576.000000
  0.479167  0.479167  0.395833    288.000000
 -0.479167  0.479167  0.395833    576.000000
 -0.437500  0.479167  0.395833    576.000000
 -0.395833  0.479167  0.395833    576.000000
 -0.479167 -0.479167  0.395833    288.000000
 -0.437500 -0.479167  0.395833    576.000000
 -0.437500 -0.437500  0.395833    288.000000
  0.437500  0.437500  0.437500     96.000000
  0.479167  0.437500  0.437500    288.000000
 -0.479167  0.437500  0.437500    288.000000
 -0.437500  0.437500  0.437500    288.000000
  0.479167  0.479167  0.437500    288.000000
 -0.479167  0.479167  0.437500    576.000000
 -0.437500  0.479167  0.437500    576.000000
 -0.479167 -0.479167  0.437500    288.000000
  0.479167  0.479167  0.479167     96.000000
 -0.479167  0.479167  0.479167    288.000000
 
 Following cartesian coordinates:
            Coordinates               Weight
  0.005782  0.005782  0.005782     96.000000
  0.017346  0.017346 -0.005782    288.000000
  0.028910  0.028910 -0.017346    288.000000
  0.040474  0.040474 -0.028910    288.000000
  0.052038  0.052038 -0.040474    288.000000
  0.063601  0.063601 -0.052038    288.000000
  0.075165  0.075165 -0.063601    288.000000
  0.086729  0.086729 -0.075165    288.000000
  0.098293  0.098293 -0.086729    288.000000
  0.109857  0.109857 -0.098293    288.000000
  0.121421  0.121421 -0.109857    288.000000
  0.132985  0.132985 -0.121421    288.000000
 -0.132985 -0.132985  0.144549    288.000000
 -0.121421 -0.121421  0.132985    288.000000
 -0.109857 -0.109857  0.121421    288.000000
 -0.098293 -0.098293  0.109857    288.000000
 -0.086729 -0.086729  0.098293    288.000000
 -0.075165 -0.075165  0.086729    288.000000
 -0.063601 -0.063601  0.075165    288.000000
 -0.052038 -0.052038  0.063601    288.000000
 -0.040474 -0.040474  0.052038    288.000000
 -0.028910 -0.028910  0.040474    288.000000
 -0.017346 -0.017346  0.028910    288.000000
 -0.005782 -0.005782  0.017346    288.000000
  0.005782  0.028910  0.005782    288.000000
  0.017346  0.040474 -0.005782    576.000000
  0.028910  0.052038 -0.017346    576.000000
  0.040474  0.063601 -0.028910    576.000000
  0.052038  0.075165 -0.040474    576.000000
  0.063601  0.086729 -0.052038    576.000000
  0.075165  0.098293 -0.063601    576.000000
  0.086729  0.109857 -0.075165    576.000000
  0.098293  0.121421 -0.086729    576.000000
  0.109857  0.132985 -0.098293    576.000000
  0.121421  0.144549 -0.109857    576.000000
 -0.144549 -0.121421  0.156113    576.000000
 -0.132985 -0.109857  0.144549    576.000000
 -0.121421 -0.098293  0.132985    576.000000
 -0.109857 -0.086729  0.121421    576.000000
 -0.098293 -0.075165  0.109857    576.000000
 -0.086729 -0.063601  0.098293    576.000000
 -0.075165 -0.052038  0.086729    576.000000
 -0.063601 -0.040474  0.075165    576.000000
 -0.052038 -0.028910  0.063601    576.000000
 -0.040474 -0.017346  0.052038    576.000000
 -0.028910 -0.005782  0.040474    576.000000
 -0.017346  0.005782  0.028910    576.000000
  0.005782  0.052038  0.005782    288.000000
  0.017346  0.063601 -0.005782    576.000000
  0.028910  0.075165 -0.017346    576.000000
  0.040474  0.086729 -0.028910    576.000000
  0.052038  0.098293 -0.040474    576.000000
  0.063601  0.109857 -0.052038    576.000000
  0.075165  0.121421 -0.063601    576.000000
  0.086729  0.132985 -0.075165    576.000000
  0.098293  0.144549 -0.086729    576.000000
  0.109857  0.156113 -0.098293    576.000000
 -0.156113 -0.109857  0.167677    576.000000
 -0.144549 -0.098293  0.156113    576.000000
 -0.132985 -0.086729  0.144549    576.000000
 -0.121421 -0.075165  0.132985    576.000000
 -0.109857 -0.063601  0.121421    576.000000
 -0.098293 -0.052038  0.109857    576.000000
 -0.086729 -0.040474  0.098293    576.000000
 -0.075165 -0.028910  0.086729    576.000000
 -0.063601 -0.017346  0.075165    576.000000
 -0.052038 -0.005782  0.063601    576.000000
 -0.040474  0.005782  0.052038    576.000000
 -0.028910  0.017346  0.040474    576.000000
  0.005782  0.075165  0.005782    288.000000
  0.017346  0.086729 -0.005782    576.000000
  0.028910  0.098293 -0.017346    576.000000
  0.040474  0.109857 -0.028910    576.000000
  0.052038  0.121421 -0.040474    576.000000
  0.063601  0.132985 -0.052038    576.000000
  0.075165  0.144549 -0.063601    576.000000
  0.086729  0.156113 -0.075165    576.000000
  0.098293  0.167677 -0.086729    576.000000
 -0.167677 -0.098293  0.179241    576.000000
 -0.156113 -0.086729  0.167677    576.000000
 -0.144549 -0.075165  0.156113    576.000000
 -0.132985 -0.063601  0.144549    576.000000
 -0.121421 -0.052038  0.132985    576.000000
 -0.109857 -0.040474  0.121421    576.000000
 -0.098293 -0.028910  0.109857    576.000000
 -0.086729 -0.017346  0.098293    576.000000
 -0.075165 -0.005782  0.086729    576.000000
 -0.063601  0.005782  0.075165    576.000000
 -0.052038  0.017346  0.063601    576.000000
 -0.040474  0.028910  0.052038    576.000000
  0.005782  0.098293  0.005782    288.000000
  0.017346  0.109857 -0.005782    576.000000
  0.028910  0.121421 -0.017346    576.000000
  0.040474  0.132985 -0.028910    576.000000
  0.052038  0.144549 -0.040474    576.000000
  0.063601  0.156113 -0.052038    576.000000
  0.075165  0.167677 -0.063601    576.000000
  0.086729  0.179241 -0.075165    576.000000
 -0.179241 -0.086729  0.190804    576.000000
 -0.167677 -0.075165  0.179241    576.000000
 -0.156113 -0.063601  0.167677    576.000000
 -0.144549 -0.052038  0.156113    576.000000
 -0.132985 -0.040474  0.144549    576.000000
 -0.121421 -0.028910  0.132985    576.000000
 -0.109857 -0.017346  0.121421    576.000000
 -0.098293 -0.005782  0.109857    576.000000
 -0.086729  0.005782  0.098293    576.000000
 -0.075165  0.017346  0.086729    576.000000
 -0.063601  0.028910  0.075165    576.000000
 -0.052038  0.040474  0.063601    576.000000
  0.005782  0.121421  0.005782    288.000000
  0.017346  0.132985 -0.005782    576.000000
  0.028910  0.144549 -0.017346    576.000000
  0.040474  0.156113 -0.028910    576.000000
  0.052038  0.167677 -0.040474    576.000000
  0.063601  0.179241 -0.052038    576.000000
  0.075165  0.190804 -0.063601    576.000000
 -0.190804 -0.075165  0.202368    576.000000
 -0.179241 -0.063601  0.190804    576.000000
 -0.167677 -0.052038  0.179241    576.000000
 -0.156113 -0.040474  0.167677    576.000000
 -0.144549 -0.028910  0.156113    576.000000
 -0.132985 -0.017346  0.144549    576.000000
 -0.121421 -0.005782  0.132985    576.000000
 -0.109857  0.005782  0.121421    576.000000
 -0.098293  0.017346  0.109857    576.000000
 -0.086729  0.028910  0.098293    576.000000
 -0.075165  0.040474  0.086729    576.000000
 -0.063601  0.052038  0.075165    576.000000
  0.005782  0.144549  0.005782    288.000000
  0.017346  0.156113 -0.005782    576.000000
  0.028910  0.167677 -0.017346    576.000000
  0.040474  0.179241 -0.028910    576.000000
  0.052038  0.190804 -0.040474    576.000000
  0.063601  0.202368 -0.052038    576.000000
 -0.202368 -0.063601  0.213932    576.000000
 -0.190804 -0.052038  0.202368    576.000000
 -0.179241 -0.040474  0.190804    576.000000
 -0.167677 -0.028910  0.179241    576.000000
 -0.156113 -0.017346  0.167677    576.000000
 -0.144549 -0.005782  0.156113    576.000000
 -0.132985  0.005782  0.144549    576.000000
 -0.121421  0.017346  0.132985    576.000000
 -0.109857  0.028910  0.121421    576.000000
 -0.098293  0.040474  0.109857    576.000000
 -0.086729  0.052038  0.098293    576.000000
 -0.075165  0.063601  0.086729    576.000000
  0.005782  0.167677  0.005782    288.000000
  0.017346  0.179241 -0.005782    576.000000
  0.028910  0.190804 -0.017346    576.000000
  0.040474  0.202368 -0.028910    576.000000
  0.052038  0.213932 -0.040474    576.000000
 -0.213932 -0.052038  0.225496    576.000000
 -0.202368 -0.040474  0.213932    576.000000
 -0.190804 -0.028910  0.202368    576.000000
 -0.179241 -0.017346  0.190804    576.000000
 -0.167677 -0.005782  0.179241    576.000000
 -0.156113  0.005782  0.167677    576.000000
 -0.144549  0.017346  0.156113    576.000000
 -0.132985  0.028910  0.144549    576.000000
 -0.121421  0.040474  0.132985    576.000000
 -0.109857  0.052038  0.121421    576.000000
 -0.098293  0.063601  0.109857    576.000000
 -0.086729  0.075165  0.098293    576.000000
  0.005782  0.190804  0.005782    288.000000
  0.017346  0.202368 -0.005782    576.000000
  0.028910  0.213932 -0.017346    576.000000
  0.040474  0.225496 -0.028910    576.000000
 -0.225496 -0.040474  0.237060    576.000000
 -0.213932 -0.028910  0.225496    576.000000
 -0.202368 -0.017346  0.213932    576.000000
 -0.190804 -0.005782  0.202368    576.000000
 -0.179241  0.005782  0.190804    576.000000
 -0.167677  0.017346  0.179241    576.000000
 -0.156113  0.028910  0.167677    576.000000
 -0.144549  0.040474  0.156113    576.000000
 -0.132985  0.052038  0.144549    576.000000
 -0.121421  0.063601  0.132985    576.000000
 -0.109857  0.075165  0.121421    576.000000
 -0.098293  0.086729  0.109857    576.000000
  0.005782  0.213932  0.005782    288.000000
  0.017346  0.225496 -0.005782    576.000000
  0.028910  0.237060 -0.017346    576.000000
 -0.237060 -0.028910  0.248624    576.000000
 -0.225496 -0.017346  0.237060    576.000000
 -0.213932 -0.005782  0.225496    576.000000
 -0.202368  0.005782  0.213932    576.000000
 -0.190804  0.017346  0.202368    576.000000
 -0.179241  0.028910  0.190804    576.000000
 -0.167677  0.040474  0.179241    576.000000
 -0.156113  0.052038  0.167677    576.000000
 -0.144549  0.063601  0.156113    576.000000
 -0.132985  0.075165  0.144549    576.000000
 -0.121421  0.086729  0.132985    576.000000
 -0.109857  0.098293  0.121421    576.000000
  0.005782  0.237060  0.005782    288.000000
  0.017346  0.248624 -0.005782    576.000000
 -0.248624 -0.017346  0.260188    576.000000
 -0.237060 -0.005782  0.248624    576.000000
 -0.225496  0.005782  0.237060    576.000000
 -0.213932  0.017346  0.225496    576.000000
 -0.202368  0.028910  0.213932    576.000000
 -0.190804  0.040474  0.202368    576.000000
 -0.179241  0.052038  0.190804    576.000000
 -0.167677  0.063601  0.179241    576.000000
 -0.156113  0.075165  0.167677    576.000000
 -0.144549  0.086729  0.156113    576.000000
 -0.132985  0.098293  0.144549    576.000000
 -0.121421  0.109857  0.132985    576.000000
  0.005782  0.260188  0.005782    288.000000
 -0.260188 -0.005782  0.271752    576.000000
 -0.248624  0.005782  0.260188    576.000000
 -0.237060  0.017346  0.248624    576.000000
 -0.225496  0.028910  0.237060    576.000000
 -0.213932  0.040474  0.225496    576.000000
 -0.202368  0.052038  0.213932    576.000000
 -0.190804  0.063601  0.202368    576.000000
 -0.179241  0.075165  0.190804    576.000000
 -0.167677  0.086729  0.179241    576.000000
 -0.156113  0.098293  0.167677    576.000000
 -0.144549  0.109857  0.156113    576.000000
 -0.132985  0.121421  0.144549    576.000000
  0.005782 -0.271752  0.005782    288.000000
  0.017346 -0.260188 -0.005782    576.000000
  0.028910 -0.248624 -0.017346    576.000000
  0.040474 -0.237060 -0.028910    576.000000
  0.052038 -0.225496 -0.040474    576.000000
  0.063601 -0.213932 -0.052038    576.000000
  0.075165 -0.202368 -0.063601    576.000000
  0.086729 -0.190804 -0.075165    576.000000
  0.098293 -0.179241 -0.086729    576.000000
  0.109857 -0.167677 -0.098293    576.000000
  0.121421 -0.156113 -0.109857    576.000000
  0.005782 -0.248624  0.005782    288.000000
  0.017346 -0.237060 -0.005782    576.000000
  0.028910 -0.225496 -0.017346    576.000000
  0.040474 -0.213932 -0.028910    576.000000
  0.052038 -0.202368 -0.040474    576.000000
  0.063601 -0.190804 -0.052038    576.000000
  0.075165 -0.179241 -0.063601    576.000000
  0.086729 -0.167677 -0.075165    576.000000
  0.098293 -0.156113 -0.086729    576.000000
  0.109857 -0.144549 -0.098293    576.000000
  0.005782 -0.225496  0.005782    288.000000
  0.017346 -0.213932 -0.005782    576.000000
  0.028910 -0.202368 -0.017346    576.000000
  0.040474 -0.190804 -0.028910    576.000000
  0.052038 -0.179241 -0.040474    576.000000
  0.063601 -0.167677 -0.052038    576.000000
  0.075165 -0.156113 -0.063601    576.000000
  0.086729 -0.144549 -0.075165    576.000000
  0.098293 -0.132985 -0.086729    576.000000
  0.005782 -0.202368  0.005782    288.000000
  0.017346 -0.190804 -0.005782    576.000000
  0.028910 -0.179241 -0.017346    576.000000
  0.040474 -0.167677 -0.028910    576.000000
  0.052038 -0.156113 -0.040474    576.000000
  0.063601 -0.144549 -0.052038    576.000000
  0.075165 -0.132985 -0.063601    576.000000
  0.086729 -0.121421 -0.075165    576.000000
  0.005782 -0.179241  0.005782    288.000000
  0.017346 -0.167677 -0.005782    576.000000
  0.028910 -0.156113 -0.017346    576.000000
  0.040474 -0.144549 -0.028910    576.000000
  0.052038 -0.132985 -0.040474    576.000000
  0.063601 -0.121421 -0.052038    576.000000
  0.075165 -0.109857 -0.063601    576.000000
  0.005782 -0.156113  0.005782    288.000000
  0.017346 -0.144549 -0.005782    576.000000
  0.028910 -0.132985 -0.017346    576.000000
  0.040474 -0.121421 -0.028910    576.000000
  0.052038 -0.109857 -0.040474    576.000000
  0.063601 -0.098293 -0.052038    576.000000
  0.005782 -0.132985  0.005782    288.000000
  0.017346 -0.121421 -0.005782    576.000000
  0.028910 -0.109857 -0.017346    576.000000
  0.040474 -0.098293 -0.028910    576.000000
  0.052038 -0.086729 -0.040474    576.000000
  0.005782 -0.109857  0.005782    288.000000
  0.017346 -0.098293 -0.005782    576.000000
  0.028910 -0.086729 -0.017346    576.000000
  0.040474 -0.075165 -0.028910    576.000000
  0.005782 -0.086729  0.005782    288.000000
  0.017346 -0.075165 -0.005782    576.000000
  0.028910 -0.063601 -0.017346    576.000000
  0.005782 -0.063601  0.005782    288.000000
  0.017346 -0.052038 -0.005782    576.000000
  0.005782 -0.040474  0.005782    288.000000
  0.017346  0.017346  0.017346     96.000000
  0.028910  0.028910  0.005782    288.000000
  0.040474  0.040474 -0.005782    288.000000
  0.052038  0.052038 -0.017346    288.000000
  0.063601  0.063601 -0.028910    288.000000
  0.075165  0.075165 -0.040474    288.000000
  0.086729  0.086729 -0.052038    288.000000
  0.098293  0.098293 -0.063601    288.000000
  0.109857  0.109857 -0.075165    288.000000
  0.121421  0.121421 -0.086729    288.000000
  0.132985  0.132985 -0.098293    288.000000
 -0.132985 -0.132985  0.167677    288.000000
 -0.121421 -0.121421  0.156113    288.000000
 -0.109857 -0.109857  0.144549    288.000000
 -0.098293 -0.098293  0.132985    288.000000
 -0.086729 -0.086729  0.121421    288.000000
 -0.075165 -0.075165  0.109857    288.000000
 -0.063601 -0.063601  0.098293    288.000000
 -0.052038 -0.052038  0.086729    288.000000
 -0.040474 -0.040474  0.075165    288.000000
 -0.028910 -0.028910  0.063601    288.000000
 -0.017346 -0.017346  0.052038    288.000000
  0.017346  0.040474  0.017346    288.000000
  0.028910  0.052038  0.005782    576.000000
  0.040474  0.063601 -0.005782    576.000000
  0.052038  0.075165 -0.017346    576.000000
  0.063601  0.086729 -0.028910    576.000000
  0.075165  0.098293 -0.040474    576.000000
  0.086729  0.109857 -0.052038    576.000000
  0.098293  0.121421 -0.063601    576.000000
  0.109857  0.132985 -0.075165    576.000000
  0.121421  0.144549 -0.086729    576.000000
 -0.144549 -0.121421  0.179241    576.000000
 -0.132985 -0.109857  0.167677    576.000000
 -0.121421 -0.098293  0.156113    576.000000
 -0.109857 -0.086729  0.144549    576.000000
[...]
      7      12.9607      0.00000
      8      28.6561      0.00000
      9      29.0406      0.00000
     10      29.9499      0.00000
     11      33.6430      0.00000
     12      34.2691      0.00000

 k-point *** :       0.4792    0.4375    0.3958
  band No.  band energies     occupation 
      1       2.6042      2.00000
      2       4.5795      2.00000
      3       4.7017      2.00000
      4       5.3408      2.00000
      5       6.0179      2.00000
      6       6.8716      2.00000
      7      12.6005      0.00000
      8      27.1903      0.00000
      9      28.5576      0.00000
     10      29.9277      0.00000
     11      33.9440      0.00000
     12      35.3114      0.00000

 k-point *** :      -0.4792    0.4375    0.3958
  band No.  band energies     occupation 
      1       2.7740      2.00000
      2       4.4891      2.00000
      3       4.7666      2.00000
      4       5.1201      2.00000
      5       5.9925      2.00000
      6       7.5648      2.00136
      7      12.3349      0.00000
      8      25.3512      0.00000
      9      27.5707      0.00000
     10      30.0345      0.00000
     11      34.4584      0.00000
     12      36.7363      0.00000

 k-point *** :      -0.4375    0.4375    0.3958
  band No.  band energies     occupation 
      1       2.9808      2.00000
      2       4.3567      2.00000
      3       4.8648      2.00000
      4       4.9026      2.00000
      5       5.9803      2.00000
      6       8.3537     -0.00011
      7      12.1602      0.00000
      8      23.5015      0.00000
      9      26.5257      0.00000
     10      29.7708      0.00000
     11      35.4583      0.00000
     12      38.2572      0.00000

 k-point *** :      -0.3958    0.4375    0.3958
  band No.  band energies     occupation 
      1       3.2023      2.00000
      2       4.1892      2.00000
      3       4.7084      2.00000
      4       5.0046      2.00000
      5       5.9784      2.00000
      6       9.2158      0.00000
      7      12.0806      0.00000
      8      21.7109      0.00000
      9      25.5022      0.00000
     10      29.3260      0.00000
     11      36.7836      0.00000
     12      39.8578      0.00000

 k-point *** :       0.4792    0.4792    0.3958
  band No.  band energies     occupation 
      1       2.6722      2.00000
      2       4.5426      2.00000
      3       4.7197      2.00000
      4       5.2975      2.00000
      5       6.0744      2.00000
      6       7.1718      2.00052
      7      12.2515      0.00000
      8      27.1924      0.00000
      9      28.1205      0.00000
     10      29.0373      0.00000
     11      35.1287      0.00000
     12      35.2160      0.00000

 k-point *** :      -0.4792    0.4792    0.3958
  band No.  band energies     occupation 
      1       2.7941      2.00000
      2       4.4714      2.00000
      3       4.7690      2.00000
      4       5.1446      2.00000
      5       6.0580      2.00000
      6       7.7286      1.04368
      7      12.0089      0.00000
      8      26.0361      0.00000
      9      26.7890      0.00000
     10      29.6612      0.00000
     11      34.8176      0.00000
     12      36.9020      0.00000

 k-point *** :      -0.4375    0.4792    0.3958
  band No.  band energies     occupation 
      1       2.9617      2.00000
      2       4.3591      2.00000
      3       4.8550      2.00000
      4       4.9485      2.00000
      5       6.0317      2.00000
      6       8.4183     -0.00001
      7      11.8753      0.00000
      8      24.5805      0.00000
      9      25.3587      0.00000
     10      30.3915      0.00000
     11      34.7067      0.00000
     12      38.7185      0.00000

 k-point *** :      -0.3958    0.4792    0.3958
  band No.  band energies     occupation 
      1       3.1597      2.00000
      2       4.2094      2.00000
      3       4.7484      2.00000
      4       4.9787      2.00000
      5       6.0167      2.00000
      6       9.1652      0.00000
      7      11.8725      0.00000
      8      22.8723      0.00000
      9      24.2505      0.00000
     10      30.6232      0.00000
     11      35.2269      0.00000
     12      40.5490      0.00000

 k-point *** :      -0.4792   -0.4792    0.3958
  band No.  band energies     occupation 
      1       2.8692      2.00000
      2       4.4213      2.00000
      3       4.8043      2.00000
      4       5.0674      2.00000
      5       6.0666      2.00000
      6       8.0989     -0.02692
      7      11.8108      0.00000
      8      25.0180      0.00000
      9      27.3358      0.00000
     10      28.6599      0.00000
     11      36.1507      0.00000
     12      36.7464      0.00000

 k-point *** :      -0.4375   -0.4792    0.3958
  band No.  band energies     occupation 
      1       2.9939      2.00000
      2       4.3340      2.00000
      3       4.8717      2.00000
      4       4.9257      2.00000
      5       6.0415      2.00000
      6       8.6107      0.00000
      7      11.7528      0.00000
      8      23.9136      0.00000
      9      26.0062      0.00000
     10      29.4664      0.00000
     11      35.7383      0.00000
     12      38.4740      0.00000

 k-point *** :      -0.4375   -0.4375    0.3958
  band No.  band energies     occupation 
      1       3.0760      2.00000
      2       4.2786      2.00000
      3       4.8411      2.00000
      4       4.9209      2.00000
      5       6.0143      2.00000
      6       8.9002      0.00000
      7      11.8108      0.00000
      8      22.7762      0.00000
      9      26.7055      0.00000
     10      28.4548      0.00000
     11      37.3117      0.00000
     12      38.0356      0.00000

 k-point *** :       0.4375    0.4375    0.4375
  band No.  band energies     occupation 
      1       2.4967      2.00000
      2       4.6414      2.00000
      3       4.6414      2.00000
      4       6.0262      2.00000
      5       6.0262      2.00000
      6       6.0574      2.00000
      7      12.5141      0.00000
      8      29.0002      0.00000
      9      29.9852      0.00000
     10      29.9852      0.00000
     11      33.1963      0.00000
     12      33.1963      0.00000

 k-point *** :       0.4792    0.4375    0.4375
  band No.  band energies     occupation 
      1       2.5690      2.00000
      2       4.6163      2.00000
      3       4.6512      2.00000
      4       5.7157      2.00000
      5       6.0177      2.00000
      6       6.6710      2.00000
      7      12.1773      0.00000
      8      28.1449      0.00000
      9      29.4789      0.00000
     10      29.9806      0.00000
     11      33.2087      0.00000
     12      34.1250      0.00000

 k-point *** :      -0.4792    0.4375    0.4375
  band No.  band energies     occupation 
      1       2.6981      2.00000
      2       4.5475      2.00000
      3       4.7039      2.00000
      4       5.3939      2.00000
      5       6.0130      2.00000
      6       7.3660      2.02597
      7      11.9440      0.00000
      8      26.4118      0.00000
      9      29.0357      0.00000
     10      29.2233      0.00000
     11      34.2958      0.00000
     12      35.3351      0.00000

 k-point *** :      -0.4375    0.4375    0.4375
  band No.  band energies     occupation 
      1       2.8727      2.00000
      2       4.4344      2.00000
      3       4.7958      2.00000
      4       5.0932      2.00000
      5       6.0112      2.00000
      6       8.1185     -0.02030
      7      11.8154      0.00000
      8      24.5778      0.00000
      9      27.8715      0.00000
     10      28.8665      0.00000
     11      35.7363      0.00000
     12      36.6278      0.00000

 k-point *** :       0.4792    0.4792    0.4375
  band No.  band energies     occupation 
      1       2.5936      2.00000
      2       4.6053      2.00000
      3       4.6503      2.00000
      4       5.7464      2.00000
      5       6.0678      2.00000
      6       6.8079      2.00000
      7      11.8788      0.00000
      8      28.4768      0.00000
      9      29.2445      0.00000
     10      29.5991      0.00000
     11      33.6850      0.00000
     12      33.7794      0.00000

 k-point *** :      -0.4792    0.4792    0.4375
  band No.  band energies     occupation 
      1       2.6787      2.00000
      2       4.5603      2.00000
      3       4.6851      2.00000
      4       5.5094      2.00000
      5       6.0551      2.00000
      6       7.3277      2.01448
      7      11.7003      0.00000
      8      27.3467      0.00000
      9      28.2053      0.00000
     10      29.7824      0.00000
     11      33.9044      0.00000
     12      35.1641      0.00000

 k-point *** :      -0.4375    0.4792    0.4375
  band No.  band energies     occupation 
      1       2.8163      2.00000
      2       4.4694      2.00000
      3       4.7600      2.00000
      4       5.2083      2.00000
      5       6.0438      2.00000
      6       7.9637     -0.06900
      7      11.6483      0.00000
      8      25.6792      0.00000
      9      27.0765      0.00000
     10      29.7859      0.00000
     11      34.5996      0.00000
     12      36.7966      0.00000

 k-point *** :      -0.4792   -0.4792    0.4375
  band No.  band energies     occupation 
      1       2.7184      2.00000
      2       4.5345      2.00000
      3       4.7024      2.00000
      4       5.4244      2.00000
      5       6.0625      2.00000
      6       7.5543      2.02185
      7      11.5989      0.00000
      8      26.7602      0.00000
      9      28.5074      0.00000
     10      29.0559      0.00000
     11      34.6592      0.00000
     12      35.2508      0.00000

 k-point *** :       0.4792    0.4792    0.4792
  band No.  band energies     occupation 
      1       2.5740      2.00000
      2       4.6247      2.00000
      3       4.6247      2.00000
      4       6.0633      2.00000
      5       6.0633      2.00000
      6       6.6007      2.00000
      7      11.6485      0.00000
      8      28.9021      0.00000
      9      29.9578      0.00000
     10      29.9578      0.00000
     11      32.9783      0.00000
     12      32.9783      0.00000

 k-point *** :      -0.4792    0.4792    0.4792
  band No.  band energies     occupation 
      1       2.6166      2.00000
      2       4.6011      2.00000
      3       4.6423      2.00000
      4       5.8088      2.00000
      5       6.0615      2.00000
      6       6.9975      2.00000
      7      11.5532      0.00000
      8      28.2994      0.00000
      9      29.4444      0.00000
     10      29.5616      0.00000
     11      33.4220      0.00000
     12      33.8484      0.00000


--------------------------------------------------------------------------------------------------------


 soft charge-density along one line, spin component           1
         0         1         2         3         4         5         6         7         8         9
 total charge-density along one line
 
 pseudopotential strength for first ion, spin component:           1
 -2.836   0.000   0.000   0.000   0.000  -4.765   0.000   0.000
  0.000  -2.836   0.000   0.000   0.000   0.000  -4.765   0.000
  0.000   0.000  -2.819   0.000   0.000   0.000   0.000  -4.778
  0.000   0.000   0.000  -2.836   0.000   0.000   0.000   0.000
  0.000   0.000   0.000   0.000  -2.819   0.000   0.000   0.000
 -4.765   0.000   0.000   0.000   0.000  10.317   0.000   0.000
  0.000  -4.765   0.000   0.000   0.000   0.000  10.317   0.000
  0.000   0.000  -4.778   0.000   0.000   0.000   0.000  10.326
  0.000   0.000   0.000  -4.765   0.000   0.000   0.000   0.000
  0.000   0.000   0.000   0.000  -4.778   0.000   0.000   0.000
  0.000   0.000   0.000   0.000   0.000   0.000   0.000   0.000
  0.000   0.000   0.000   0.000   0.000   0.000   0.000   0.000
  0.000   0.000   0.000   0.000   0.000   0.000   0.000   0.000
  0.000   0.000   0.000   0.000   0.000   0.000   0.000   0.000
  0.000   0.000   0.000   0.000   0.000   0.000   0.000   0.000
  0.000   0.000   0.000   0.000   0.000   0.000   0.000   0.000
  0.000   0.000   0.000   0.000   0.000   0.000   0.000   0.000
  0.000   0.000   0.000   0.000   0.000   0.000   0.000   0.000
 total augmentation occupancy for first ion, spin component:           1
  1.910   0.000   0.000   0.000   0.000  -0.012   0.000   0.000   0.000   0.000   0.000   0.000   0.000   0.000   0.000   0.000
  0.000   1.910   0.000   0.000   0.000   0.000  -0.012   0.000   0.000   0.000   0.000   0.000   0.000   0.000   0.000   0.000
  0.000   0.000   1.929   0.000   0.000   0.000   0.000  -0.031   0.000   0.000   0.000   0.000   0.000   0.000   0.000   0.000
  0.000   0.000   0.000   1.910   0.000   0.000   0.000   0.000  -0.012   0.000   0.000   0.000   0.000   0.000   0.000   0.000
  0.000   0.000   0.000   0.000   1.929   0.000   0.000   0.000   0.000  -0.031   0.000   0.000   0.000   0.000   0.000   0.000
 -0.012   0.000   0.000   0.000   0.000   0.018   0.000   0.000   0.000   0.000   0.000   0.000   0.000   0.000   0.000   0.000
  0.000  -0.012   0.000   0.000   0.000   0.000   0.018   0.000   0.000   0.000   0.000   0.000   0.000   0.000   0.000   0.000
  0.000   0.000  -0.031   0.000   0.000   0.000   0.000   0.017   0.000   0.000   0.000   0.000   0.000   0.000   0.000   0.000
  0.000   0.000   0.000  -0.012   0.000   0.000   0.000   0.000   0.018   0.000   0.000   0.000   0.000   0.000   0.000   0.000
  0.000   0.000   0.000   0.000  -0.031   0.000   0.000   0.000   0.000   0.017   0.000   0.000   0.000   0.000   0.000   0.000
  0.000   0.000   0.000   0.000   0.000   0.000   0.000   0.000   0.000   0.000   1.821  -0.179   0.000   0.000   0.000   0.000
  0.000   0.000   0.000   0.000   0.000   0.000   0.000   0.000   0.000   0.000  -0.179   0.023   0.000   0.000   0.000   0.000
  0.000   0.000   0.000   0.000   0.000   0.000   0.000   0.000   0.000   0.000   0.000   0.000   0.244   0.000   0.000  -0.016
  0.000   0.000   0.000   0.000   0.000   0.000   0.000   0.000   0.000   0.000   0.000   0.000   0.000   0.244   0.000   0.000
  0.000   0.000   0.000   0.000   0.000   0.000   0.000   0.000   0.000   0.000   0.000   0.000   0.000   0.000   0.244   0.000
  0.000   0.000   0.000   0.000   0.000   0.000   0.000   0.000   0.000   0.000   0.000   0.000  -0.016   0.000   0.000   0.001
  0.000   0.000   0.000   0.000   0.000   0.000   0.000   0.000   0.000   0.000   0.000   0.000   0.000  -0.016   0.000   0.000
  0.000   0.000   0.000   0.000   0.000   0.000   0.000   0.000   0.000   0.000   0.000   0.000   0.000   0.000  -0.016   0.000


------------------------ aborting loop because EDIFF is reached ----------------------------------------


    CHARGE:  cpu time    0.08: real time    0.07
    FORLOC:  cpu time    0.00: real time    0.00
    FORNL :  cpu time    0.14: real time    0.14
    STRESS:  cpu time    0.93: real time    0.93
    FORCOR:  cpu time    0.00: real time    0.00
    FORHAR:  cpu time    0.01: real time    0.00
    MIXING:  cpu time    0.00: real time    0.00

  FORCE on cell =-STRESS in cart. coord.  units (eV):
  Direction    XX          YY          ZZ          XY          YZ          ZX
  --------------------------------------------------------------------------------------
  Alpha Z    62.59080    62.59080    62.59080
  Ewald    -369.62606  -369.62606  -369.62606     0.00000     0.00000     0.00000
  Hartree   112.12262   112.12262   112.12262     0.00000     0.00000     0.00000
  E(xc)     -64.36800   -64.36800   -64.36800    -0.00002    -0.00002    -0.00003
  Local      95.56172    95.56173    95.56172     0.00082     0.00082     0.00082
  n-local   -20.11881   -22.28245   -21.30072    -0.82990     0.00052     0.81222
  augment    94.83475    94.83474    94.83475    -0.00056    -0.00056    -0.00057
  Kinetic    88.51289    92.57764    89.27031     1.28892    -0.00528    -1.29917
  Fock        0.00000     0.00000     0.00000     0.00000     0.00000     0.00000
  -------------------------------------------------------------------------------------
  Total       0.00212     0.00212     0.00212     0.00000     0.00000     0.00000
  in kB       0.29080     0.29080     0.29080     0.00000     0.00000     0.00000
  external pressure =        0.29 kB  Pullay stress =        0.00 kB


 VOLUME and BASIS-vectors are now :
 -----------------------------------------------------------------------------
  energy-cutoff  :      295.45
  volume of cell :       11.68
      direct lattice vectors                 reciprocal lattice vectors
     1.801042261  1.801042261  0.000000000     0.277617028  0.277617028 -0.277617028
     0.000000000  1.801042261  1.801042261    -0.277617028  0.277617028  0.277617028
     1.801042261  0.000000000  1.801042261     0.277617028 -0.277617028  0.277617028

  length of vectors
     2.547058391  2.547058391  2.547058391     0.480846798  0.480846798  0.480846798


 FORCES acting on ions
    electron-ion (+dipol)            ewald-force                    non-local-force                 convergence-correction
 -----------------------------------------------------------------------------------------------
   -.197E-13 -.747E-15 -.105E-13   0.718E-15 0.195E-14 -.244E-14   0.258E-25 0.258E-25 0.388E-25   0.376E-13 -.131E-13 0.752E-14
 -----------------------------------------------------------------------------------------------
   -.197E-13 -.747E-15 -.105E-13   0.718E-15 0.195E-14 -.244E-14   0.258E-25 0.258E-25 0.388E-25   0.376E-13 -.131E-13 0.752E-14
 
 
 POSITION                                       TOTAL-FORCE (eV/Angst)
 -----------------------------------------------------------------------------------
      0.00000      0.00000      0.00000         0.000000      0.000000      0.000000
 -----------------------------------------------------------------------------------
    total drift:                                0.000000      0.000000      0.000000


--------------------------------------------------------------------------------------------------------



  FREE ENERGIE OF THE ION-ELECTRON SYSTEM (eV)
  ---------------------------------------------------
  free  energy   TOTEN  =        -3.720883 eV

  energy  without entropy=       -3.720735  energy(sigma->0) =       -3.720834
 
 d Force = 0.0000000E+00[ 0.000E+00, 0.000E+00]  d Energy =-0.8620191E-08 0.862E-08
 d Force = 0.0000000E+00[ 0.000E+00, 0.000E+00]  d Ewald  = 0.6189410E-01-0.619E-01


--------------------------------------------------------------------------------------------------------


    POTLOK:  cpu time    0.00: real time    0.00


--------------------------------------------------------------------------------------------------------




--------------------------------------------------------------------------------------------------------


  
 reached required accuracy - stopping structural energy minimisation
     LOOP+:  cpu time   10.93: real time   19.17
    4ORBIT:  cpu time    0.00: real time    0.00

 total amount of memory used by VASP on root node    67587. kBytes
========================================================================

   base      :      30000. kBytes
   nonl-proj :      26959. kBytes
   fftplans  :        134. kBytes
   grid      :        246. kBytes
   one-center:         15. kBytes
   wavefun   :      10233. kBytes
 
  
  
 General timing and accounting informations for this job:
 ========================================================
  
                  Total CPU time used (sec):       87.910
                            User time (sec):       87.350
                          System time (sec):        0.560
                         Elapsed time (sec):      112.684
  
                   Maximum memory used (kb):       82612.
                   Average memory used (kb):           0.
  
                          Minor page faults:        20953
                          Major page faults:            0
                 Voluntary context switches:          767
