 vasp.5.2.12 26May11 complex 
 executed on             LinuxIFC date 2012.05.01  12:14:48
 running on    4 nodes
 distr:  one band on    1 nodes,    4 groups


--------------------------------------------------------------------------------------------------------


 INCAR:
 POTCAR:    PAW_PBE Al 04Jan2001                  
 POTCAR:    PAW_PBE Al 04Jan2001                  
   VRHFIN =Al: s2p1                                                             
   LEXCH  = PE                                                                  
   EATOM  =    53.5387 eV,    3.9350 Ry                                         
                                                                                
   TITEL  = PAW_PBE Al 04Jan2001                                                
   LULTRA =        F    use ultrasoft PP ?                                      
   IUNSCR =        1    unscreen: 0-lin 1-nonlin 2-no                           
   RPACOR =    1.500    partial core radius                                     
   POMASS =   26.981; ZVAL   =    3.000    mass and valenz                      
   RCORE  =    1.900    outmost cutoff radius                                   
   RWIGS  =    2.650; RWIGS  =    1.402    wigner-seitz radius (au A)           
   ENMAX  =  240.300; ENMIN  =  180.225 eV                                      
   ICORE  =        2    local potential                                         
   LCOR   =        T    correct aug charges                                     
   LPAW   =        T    paw PP                                                  
   EAUG   =  291.052                                                            
   DEXC   =    0.000                                                            
   RMAX   =    1.939    core radius for proj-oper                               
   RAUG   =    1.300    factor for augmentation sphere                          
   RDEP   =    1.966    radius for radial grids                                 
   RDEPT  =    1.856    core radius for aug-charge                              
                                                                                
   Atomic configuration                                                         
    6 entries                                                                   
     n  l   j            E        occ.                                          
     1  0  0.50     -1511.1048   2.0000                                         
     2  0  0.50      -108.1629   2.0000                                         
     2  1  1.50       -69.6402   6.0000                                         
     3  0  0.50        -7.7528   2.0000                                         
     3  1  1.50        -2.7121   1.0000                                         
     3  2  2.50        -2.7212   0.0000                                         
   Description                                                                  
     l       E           TYP  RCUT    TYP  RCUT                                 
     0     -7.7528455     23  1.900                                             
     0     -3.3096929     23  1.900                                             
     1     -2.7120682     23  1.900                                             
     1     13.6058260     23  1.900                                             
     2     -2.7211652      7  1.900                                             
  local pseudopotential read in
  partial core-charges read in
  partial kinetic energy density read in
  atomic valenz-charges read in
  non local Contribution for L=           0  read in
    real space projection operators read in
  non local Contribution for L=           0  read in
    real space projection operators read in
  non local Contribution for L=           1  read in
    real space projection operators read in
  non local Contribution for L=           1  read in
    real space projection operators read in
    PAW grid and wavefunctions read in
 
   number of l-projection  operators is LMAX  =           4
   number of lm-projection operators is LMMAX =           8
 
  PAW_PBE Al 04Jan2001                  :
 energy of atom  1       EATOM=  -53.5387
 kinetic energy error for atom=    0.0029 (will be added to EATOM!!)
 
 
 POSCAR: XYZ: Al4                                
  positions in direct lattice
  velocities in cartesian coordinates
 exchange correlation table for  LEXCH =        8
   RHO(1)=    0.500       N(1)  =     2000
   RHO(2)=  100.500       N(2)  =     4000
 


--------------------------------------------------------------------------------------------------------


 ion  position               nearest neighbor table
   1  0.000  0.000  0.000-   2 2.86   3 2.86   4 2.86   2 2.86   3 2.86   2 2.86   4 2.86   2 2.86
                             3 2.86   4 2.86   3 2.86   4 2.86
   2  0.000  0.500  0.500-   1 2.86   3 2.86   4 2.86   1 2.86   4 2.86   1 2.86   3 2.86   1 2.86
                             3 2.86   4 2.86   4 2.86   3 2.86
   3  0.500  0.000  0.500-   1 2.86   2 2.86   4 2.86   1 2.86   4 2.86   2 2.86   4 2.86   4 2.86
                             1 2.86   2 2.86   1 2.86   2 2.86
   4  0.500  0.500  0.000-   1 2.86   2 2.86   3 2.86   2 2.86   3 2.86   1 2.86   3 2.86   3 2.86
                             1 2.86   2 2.86   2 2.86   1 2.86
 
  LATTYP: Found a simple cubic cell.
 ALAT       =     4.0436788852
  
  Lattice vectors:
  
 A1 = (   4.0436788852,   0.0000000000,   0.0000000000)
 A2 = (   0.0000000000,   4.0436788852,   0.0000000000)
 A3 = (   0.0000000000,   0.0000000000,   4.0436788852)
 Subroutine PRICEL returns following result:
 
  LATTYP: Found a face centered cubic cell.
 ALAT       =     4.0436788852
  
  Lattice vectors:
  
 A1 = (   2.0218394426,   2.0218394426,   0.0000000000)
 A2 = (   2.0218394426,   0.0000000000,  -2.0218394426)
 A3 = (   0.0000000000,   2.0218394426,  -2.0218394426)
 
   4 primitive cells build up your supercell.
 

Analysis of symmetry for initial positions (statically):

 Routine SETGRP: Setting up the symmetry group for a 
 simple cubic supercell.


 Subroutine GETGRP returns: Found 48 space group operations
 (whereof 48 operations were pure point group operations)
 out of a pool of 48 trial point group operations.


The static configuration has the point symmetry O_h .

Analysis of symmetry for dynamics (positions and initial velocities):

 Subroutine DYNSYM returns: Found 48 space group operations
 (whereof 48 operations were pure point group operations)
 out of a pool of 48 trial space group operations
 (whereof 48 operations were pure point group operations)
 and found also     4 'primitive' translations


The dynamic configuration has the point symmetry O_h .
 
 
 KPOINTS: Automatic mesh                          

Automatic generation of k-mesh.
 
 Subroutine IBZKPT returns following result:
 ===========================================
 
 Found     35 irreducible k-points:
 
 Following reciprocal coordinates:
            Coordinates               Weight
  0.050000  0.050000  0.050000      8.000000
  0.150000  0.050000  0.050000     24.000000
  0.250000  0.050000  0.050000     24.000000
  0.350000  0.050000  0.050000     24.000000
  0.450000  0.050000  0.050000     24.000000
  0.150000  0.150000  0.050000     24.000000
  0.250000  0.150000  0.050000     48.000000
  0.350000  0.150000  0.050000     48.000000
  0.450000  0.150000  0.050000     48.000000
  0.250000  0.250000  0.050000     24.000000
  0.350000  0.250000  0.050000     48.000000
  0.450000  0.250000  0.050000     48.000000
  0.350000  0.350000  0.050000     24.000000
  0.450000  0.350000  0.050000     48.000000
  0.450000  0.450000  0.050000     24.000000
  0.150000  0.150000  0.150000      8.000000
  0.250000  0.150000  0.150000     24.000000
  0.350000  0.150000  0.150000     24.000000
  0.450000  0.150000  0.150000     24.000000
  0.250000  0.250000  0.150000     24.000000
  0.350000  0.250000  0.150000     48.000000
  0.450000  0.250000  0.150000     48.000000
  0.350000  0.350000  0.150000     24.000000
  0.450000  0.350000  0.150000     48.000000
  0.450000  0.450000  0.150000     24.000000
  0.250000  0.250000  0.250000      8.000000
  0.350000  0.250000  0.250000     24.000000
  0.450000  0.250000  0.250000     24.000000
  0.350000  0.350000  0.250000     24.000000
  0.450000  0.350000  0.250000     48.000000
  0.450000  0.450000  0.250000     24.000000
  0.350000  0.350000  0.350000      8.000000
  0.450000  0.350000  0.350000     24.000000
  0.450000  0.450000  0.350000     24.000000
  0.450000  0.450000  0.450000      8.000000
 
 Following cartesian coordinates:
            Coordinates               Weight
  0.012365  0.012365  0.012365      8.000000
  0.037095  0.012365  0.012365     24.000000
  0.061825  0.012365  0.012365     24.000000
  0.086555  0.012365  0.012365     24.000000
  0.111285  0.012365  0.012365     24.000000
  0.037095  0.037095  0.012365     24.000000
  0.061825  0.037095  0.012365     48.000000
  0.086555  0.037095  0.012365     48.000000
  0.111285  0.037095  0.012365     48.000000
  0.061825  0.061825  0.012365     24.000000
  0.086555  0.061825  0.012365     48.000000
  0.111285  0.061825  0.012365     48.000000
  0.086555  0.086555  0.012365     24.000000
  0.111285  0.086555  0.012365     48.000000
  0.111285  0.111285  0.012365     24.000000
  0.037095  0.037095  0.037095      8.000000
  0.061825  0.037095  0.037095     24.000000
  0.086555  0.037095  0.037095     24.000000
  0.111285  0.037095  0.037095     24.000000
  0.061825  0.061825  0.037095     24.000000
  0.086555  0.061825  0.037095     48.000000
  0.111285  0.061825  0.037095     48.000000
  0.086555  0.086555  0.037095     24.000000
  0.111285  0.086555  0.037095     48.000000
  0.111285  0.111285  0.037095     24.000000
  0.061825  0.061825  0.061825      8.000000
  0.086555  0.061825  0.061825     24.000000
  0.111285  0.061825  0.061825     24.000000
  0.086555  0.086555  0.061825     24.000000
  0.111285  0.086555  0.061825     48.000000
  0.111285  0.111285  0.061825     24.000000
  0.086555  0.086555  0.086555      8.000000
  0.111285  0.086555  0.086555     24.000000
  0.111285  0.111285  0.086555     24.000000
  0.111285  0.111285  0.111285      8.000000
 


--------------------------------------------------------------------------------------------------------




 Dimension of arrays:
   k-points           NKPTS =     35   k-points in BZ     NKDIM =     35   number of bands    NBANDS=     12
   number of dos      NEDOS =    301   number of ions     NIONS =      4
   non local maximal  LDIM  =      4   non local SUM 2l+1 LMDIM =      8
   total plane-waves  NPLWV =   4096
   max r-space proj   IRMAX =      1   max aug-charges    IRDMAX=   2610
   dimension x,y,z NGX =    16 NGY =   16 NGZ =   16
   dimension x,y,z NGXF=    32 NGYF=   32 NGZF=   32
   support grid    NGXF=    32 NGYF=   32 NGZF=   32
   ions per type =               4
 NGX,Y,Z   is equivalent  to a cutoff of   6.58,  6.58,  6.58 a.u.
 NGXF,Y,Z  is equivalent  to a cutoff of  13.16, 13.16, 13.16 a.u.


 I would recommend the setting:
   dimension x,y,z NGX =    15 NGY =   15 NGZ =   15
 SYSTEM =  Al4                                     
 POSCAR =  XYZ: Al4                                

 Startparameter for this run:
   NWRITE =      2    write-flag & timer
   PREC   = normal    normal or accurate (medium, high low for compatibility)
   ISTART =      0    job   : 0-new  1-cont  2-samecut
   ICHARG =      2    charge: 1-file 2-atom 10-const
   ISPIN  =      1    spin polarized calculation?
   LNONCOLLINEAR =      F non collinear calculations
   LSORBIT =      F    spin-orbit coupling
   INIWAV =      1    electr: 0-lowe 1-rand  2-diag
   LASPH  =      F    aspherical Exc in radial PAW
   METAGGA=      F    non-selfconsistent MetaGGA calc.

 Electronic Relaxation 1
   ENCUT  =  240.3 eV  17.66 Ry    4.20 a.u.   5.11  5.11  5.11*2*pi/ulx,y,z
   ENINI  =  240.3     initial cutoff
   ENAUG  =  291.1 eV  augmentation charge cutoff
   NELM   =     40;   NELMIN=  2; NELMDL=  0     # of ELM steps 
   EDIFF  = 0.1E-05   stopping-criterion for ELM
   LREAL  =      F    real-space projection
   LCOMPAT=      F    compatible to vasp.4.4
   GGA_COMPAT  = T    GGA compatible to vasp.4.4-vasp.4.6
   LMAXPAW     = -100 max onsite density
   LMAXMIX     =    2 max onsite mixed and CHGCAR
   VOSKOWN=      0    Vosko Wilk Nusair interpolation
   ROPT   =    0.00000
 Ionic relaxation
   EDIFFG = 0.1E-04   stopping-criterion for IOM
   NSW    =     10    number of steps for IOM
   NBLOCK =      1;   KBLOCK =     10    inner block; outer block 
   IBRION =      2    ionic relax: 0-MD 1-quasi-New 2-CG
   NFREE  =      1    steps in history (QN), initial steepest desc. (CG)
   ISIF   =      3    stress and relaxation
   IWAVPR =     11    prediction:  0-non 1-charg 2-wave 3-comb
   ISYM   =      2    0-nonsym 1-usesym 2-fastsym
   LCORR  =      T    Harris-Foulkes like correction to forces

   POTIM  = 0.2500    time-step for ionic-motion
   TEIN   =    0.0    initial temperature
   TEBEG  =    0.0;   TEEND  =   0.0 temperature during run
   SMASS  =  -3.00    Nose mass-parameter (am)
   estimated Nose-frequenzy (Omega)   =  0.10E-29 period in steps =****** mass=  -0.374E-27a.u.
   SCALEE = 1.0000    scale energy and forces
   NPACO  =    256;   APACO  = 16.0  distance and # of slots for P.C.
   PSTRESS=    0.0 pullay stress

  Mass of Ions in am
   POMASS =  26.98
  Ionic Valenz
   ZVAL   =   3.00
  Atomic Wigner-Seitz radii
   RWIGS  =  -1.00
  virtual crystal weights 
   VCA    =   1.00
   NELECT =      12.0000    total number of electrons
   NUPDOWN=      -1.0000    fix difference up-down

 DOS related values:
   EMIN   =  10.00;   EMAX   =-10.00  energy-range for DOS
   EFERMI =   0.00
   ISMEAR =     1;   SIGMA  =   0.20  broadening in eV -4-tet -1-fermi 0-gaus

 Electronic relaxation 2 (details)
   IALGO  =     38    algorithm
   LDIAG  =      T    sub-space diagonalisation (order eigenvalues)
   LSUBROT=      T    optimize rotation matrix (better conditioning)
   TURBO    =      0    0=normal 1=particle mesh
   IRESTART =      0    0=no restart 2=restart with 2 vectors
   NREBOOT  =      0    no. of reboots
   NMIN     =      0    reboot dimension
   EREF     =   0.00    reference energy to select bands
   IMIX   =      4    mixing-type and parameters
     AMIX     =   0.40;   BMIX     =  1.00
     AMIX_MAG =   1.60;   BMIX_MAG =  1.00
     AMIN     =   0.10
     WC   =   100.;   INIMIX=   1;  MIXPRE=   1

 Intra band minimization:
   WEIMIN = 0.0010     energy-eigenvalue tresh-hold
   EBREAK =  0.25E-07  absolut break condition
   DEPER  =   0.30     relativ break condition  

   TIME   =   0.40     timestep for ELM

  volume/ion in A,a.u.               =      16.53       111.55
  Fermi-wavevector in a.u.,A,eV,Ry     =   0.926884  1.751556 11.688948  0.859113
  Thomas-Fermi vector in A             =   2.052894
 
 Write flags
   LWAVE  =      F    write WAVECAR
   LCHARG =      F    write CHGCAR
   LVTOT  =      F    write LOCPOT, total local potential
   LVHAR  =      F    write LOCPOT, Hartree potential only
   LELF   =      F    write electronic localiz. function (ELF)
   LORBIT =      0    0 simple, 1 ext, 2 COOP (PROOUT)


 Dipole corrections
   LMONO  =      F    monopole corrections only (constant potential shift)
   LDIPOL =      F    correct potential (dipole corrections)
   IDIPOL =      0    1-x, 2-y, 3-z, 4-all directions 
   EPSILON=  1.0000000 bulk dielectric constant

 Exchange correlation treatment:
   GGA     =    --    GGA type
   LEXCH   =     8    internal setting for exchange type
   VOSKOWN=      0    Vosko Wilk Nusair interpolation
   LHFCALC =     F    Hartree Fock is set to
   LHFONE  =     F    Hartree Fock one center treatment
   AEXX    =    0.0000 exact exchange contribution

 Linear response parameters
   LEPSILON=     F    determine dielectric tensor
   LRPA    =     F    only Hartree local field effects (RPA)
   LNABLA  =     F    use nabla operator in PAW spheres
   LVEL    =     F    velocity operator in full k-point grid
   LINTERFAST=   F  fast interpolation
   KINTER  =     0    interpolate to denser k-point grid
   CSHIFT  =0.1000    complex shift for real part using Kramers Kronig
   OMEGAMAX=  -1.0    maximum frequency
   RTIME   =    0.100 relaxation time in fs

 Orbital magnetization related:
   ORBITALMAG=     F  switch on orbital magnetization
   LCHIMAG   =     F  perturbation theory with respect to B field
   DQ        =  0.001000  dq finite difference perturbation B field



--------------------------------------------------------------------------------------------------------


 conjugate gradient relaxation of ions
 charge density and potential will be updated during run
 non-spin polarized calculation
 Variant of blocked Davidson
 Davidson routine will perform the subspace rotation
 perform sub-space diagonalisation
    after iterative eigenvector-optimisation
 modified Broyden-mixing scheme, WC =      100.0
 initial mixing is a Kerker type mixing with AMIX =  0.4000 and BMIX =      1.0000
 Hartree-type preconditioning will be used
 using additional bands            6
 reciprocal scheme for non local part
 use partial core corrections
 calculate Harris-corrections to forces 
   (improved forces if not selfconsistent)
 use gradient corrections 
 use of overlap-Matrix (Vanderbilt PP)
 Methfessel and Paxton  Order N= 1 SIGMA  =   0.20


--------------------------------------------------------------------------------------------------------


  energy-cutoff  :      240.30
  volume of cell :       66.12
      direct lattice vectors                 reciprocal lattice vectors
     4.043678885  0.000000000  0.000000000     0.247299558  0.000000000  0.000000000
     0.000000000  4.043678885  0.000000000     0.000000000  0.247299558  0.000000000
     0.000000000  0.000000000  4.043678885     0.000000000  0.000000000  0.247299558

  length of vectors
     4.043678885  4.043678885  4.043678885     0.247299558  0.247299558  0.247299558


 
 k-points in units of 2pi/SCALE and weight: Automatic mesh                          
   0.01236498  0.01236498  0.01236498       0.008
   0.03709493  0.01236498  0.01236498       0.024
   0.06182489  0.01236498  0.01236498       0.024
   0.08655485  0.01236498  0.01236498       0.024
   0.11128480  0.01236498  0.01236498       0.024
   0.03709493  0.03709493  0.01236498       0.024
   0.06182489  0.03709493  0.01236498       0.048
   0.08655485  0.03709493  0.01236498       0.048
   0.11128480  0.03709493  0.01236498       0.048
   0.06182489  0.06182489  0.01236498       0.024
   0.08655485  0.06182489  0.01236498       0.048
   0.11128480  0.06182489  0.01236498       0.048
   0.08655485  0.08655485  0.01236498       0.024
   0.11128480  0.08655485  0.01236498       0.048
   0.11128480  0.11128480  0.01236498       0.024
   0.03709493  0.03709493  0.03709493       0.008
   0.06182489  0.03709493  0.03709493       0.024
   0.08655485  0.03709493  0.03709493       0.024
   0.11128480  0.03709493  0.03709493       0.024
   0.06182489  0.06182489  0.03709493       0.024
   0.08655485  0.06182489  0.03709493       0.048
   0.11128480  0.06182489  0.03709493       0.048
   0.08655485  0.08655485  0.03709493       0.024
   0.11128480  0.08655485  0.03709493       0.048
   0.11128480  0.11128480  0.03709493       0.024
   0.06182489  0.06182489  0.06182489       0.008
   0.08655485  0.06182489  0.06182489       0.024
   0.11128480  0.06182489  0.06182489       0.024
   0.08655485  0.08655485  0.06182489       0.024
   0.11128480  0.08655485  0.06182489       0.048
   0.11128480  0.11128480  0.06182489       0.024
   0.08655485  0.08655485  0.08655485       0.008
   0.11128480  0.08655485  0.08655485       0.024
   0.11128480  0.11128480  0.08655485       0.024
   0.11128480  0.11128480  0.11128480       0.008
 
 k-points in reciprocal lattice and weights: Automatic mesh                          
   0.05000000  0.05000000  0.05000000       0.008
   0.15000000  0.05000000  0.05000000       0.024
   0.25000000  0.05000000  0.05000000       0.024
   0.35000000  0.05000000  0.05000000       0.024
   0.45000000  0.05000000  0.05000000       0.024
   0.15000000  0.15000000  0.05000000       0.024
   0.25000000  0.15000000  0.05000000       0.048
   0.35000000  0.15000000  0.05000000       0.048
   0.45000000  0.15000000  0.05000000       0.048
   0.25000000  0.25000000  0.05000000       0.024
   0.35000000  0.25000000  0.05000000       0.048
   0.45000000  0.25000000  0.05000000       0.048
   0.35000000  0.35000000  0.05000000       0.024
   0.45000000  0.35000000  0.05000000       0.048
   0.45000000  0.45000000  0.05000000       0.024
   0.15000000  0.15000000  0.15000000       0.008
   0.25000000  0.15000000  0.15000000       0.024
   0.35000000  0.15000000  0.15000000       0.024
   0.45000000  0.15000000  0.15000000       0.024
   0.25000000  0.25000000  0.15000000       0.024
   0.35000000  0.25000000  0.15000000       0.048
   0.45000000  0.25000000  0.15000000       0.048
   0.35000000  0.35000000  0.15000000       0.024
   0.45000000  0.35000000  0.15000000       0.048
   0.45000000  0.45000000  0.15000000       0.024
   0.25000000  0.25000000  0.25000000       0.008
   0.35000000  0.25000000  0.25000000       0.024
   0.45000000  0.25000000  0.25000000       0.024
   0.35000000  0.35000000  0.25000000       0.024
   0.45000000  0.35000000  0.25000000       0.048
   0.45000000  0.45000000  0.25000000       0.024
   0.35000000  0.35000000  0.35000000       0.008
   0.45000000  0.35000000  0.35000000       0.024
   0.45000000  0.45000000  0.35000000       0.024
   0.45000000  0.45000000  0.45000000       0.008
 
 position of ions in fractional coordinates (direct lattice) 
   0.00000000  0.00000000  0.00000000
   0.00000000  0.50000000  0.50000000
   0.50000000  0.00000000  0.50000000
   0.50000000  0.50000000  0.00000000
 
 position of ions in cartesian coordinates  (Angst):
   0.00000000  0.00000000  0.00000000
   0.00000000  2.02183944  2.02183944
   2.02183944  0.00000000  2.02183944
   2.02183944  2.02183944  0.00000000
 


--------------------------------------------------------------------------------------------------------


 k-point  1 :  0.05000.05000.0500  plane waves:     558
 k-point  2 :  0.15000.05000.0500  plane waves:     551
 k-point  3 :  0.25000.05000.0500  plane waves:     552
 k-point  4 :  0.35000.05000.0500  plane waves:     552
 k-point  5 :  0.45000.05000.0500  plane waves:     568
 k-point  6 :  0.15000.15000.0500  plane waves:     554
 k-point  7 :  0.25000.15000.0500  plane waves:     551
 k-point  8 :  0.35000.15000.0500  plane waves:     554
 k-point  9 :  0.45000.15000.0500  plane waves:     559
 k-point 10 :  0.25000.25000.0500  plane waves:     551
 k-point 11 :  0.35000.25000.0500  plane waves:     557
 k-point 12 :  0.45000.25000.0500  plane waves:     561
 k-point 13 :  0.35000.35000.0500  plane waves:     564
 k-point 14 :  0.45000.35000.0500  plane waves:     557
 k-point 15 :  0.45000.45000.0500  plane waves:     559
 k-point 16 :  0.15000.15000.1500  plane waves:     555
 k-point 17 :  0.25000.15000.1500  plane waves:     560
 k-point 18 :  0.35000.15000.1500  plane waves:     558
 k-point 19 :  0.45000.15000.1500  plane waves:     563
 k-point 20 :  0.25000.25000.1500  plane waves:     558
 k-point 21 :  0.35000.25000.1500  plane waves:     561
 k-point 22 :  0.45000.25000.1500  plane waves:     561
 k-point 23 :  0.35000.35000.1500  plane waves:     561
 k-point 24 :  0.45000.35000.1500  plane waves:     560
 k-point 25 :  0.45000.45000.1500  plane waves:     557
 k-point 26 :  0.25000.25000.2500  plane waves:     552
 k-point 27 :  0.35000.25000.2500  plane waves:     565
 k-point 28 :  0.45000.25000.2500  plane waves:     565
 k-point 29 :  0.35000.35000.2500  plane waves:     565
 k-point 30 :  0.45000.35000.2500  plane waves:     565
 k-point 31 :  0.45000.45000.2500  plane waves:     560
 k-point 32 :  0.35000.35000.3500  plane waves:     558
 k-point 33 :  0.45000.35000.3500  plane waves:     562
 k-point 34 :  0.45000.45000.3500  plane waves:     563
 k-point 35 :  0.45000.45000.4500  plane waves:     567

 maximum and minimum number of plane-waves per node :       568      551

 maximum number of plane-waves:       568
 maximum index in each direction: 
   IXMAX=    5   IYMAX=    5   IZMAX=    5
   IXMIN=   -5   IYMIN=   -5   IZMIN=   -5

 WARNING: aliasing errors must be expected set NGX to  22 to avoid them
 WARNING: aliasing errors must be expected set NGY to  22 to avoid them
 WARNING: aliasing errors must be expected set NGZ to  22 to avoid them
 aliasing errors are usually negligible using standard VASP settings
 and one can safely disregard these warnings

 serial   3D FFT for wavefunctions
 parallel 3D FFT for charge:
    minimum data exchange during FFTs selected (reduces bandwidth)


 total amount of memory used by VASP on root node    33207. kBytes
========================================================================

   base      :      30000. kBytes
   nonl-proj :       1308. kBytes
   fftplans  :        302. kBytes
   grid      :        577. kBytes
   one-center:         12. kBytes
   wavefun   :       1008. kBytes
 
 Broyden mixing: mesh for mixing (old mesh)
   NGX = 11   NGY = 11   NGZ = 11
  (NGX  = 32   NGY  = 32   NGZ  = 32)
  gives a total of   1331 points

 initial charge density was supplied:
 charge density of overlapping atoms calculated
 number of electron      12.0000000 magnetization 
 keeping initial charge density in first step


--------------------------------------------------------------------------------------------------------


 Maximum index for augmentation-charges          553 (set IRDMAX)


--------------------------------------------------------------------------------------------------------


 First call to EWALD:  gamma=   0.438
 Maximum number of real-space cells 3x 3x 3
 Maximum number of reciprocal cells 3x 3x 3

    FEWALD:  cpu time    0.00: real time    0.00


----------------------------------------- Iteration    1(   1)  ---------------------------------------


    POTLOK:  cpu time    0.01: real time    0.01
    SETDIJ:  cpu time    0.00: real time    0.00
     EDDAV:  cpu time    0.11: real time    0.11
       DOS:  cpu time    0.00: real time    0.00
    --------------------------------------------
      LOOP:  cpu time    0.12: real time    0.12

 eigenvalue-minimisations  :   848
 total energy-change (2. order) :-0.1640092E+01  (-0.2591507E+03)
 number of electron      12.0000000 magnetization 
 augmentation part       12.0000000 magnetization 

 Free energy of the ion-electron system (eV)
  ---------------------------------------------------
  alpha Z        PSCENC =        -0.81278453
  Ewald energy   TEWEN  =      -293.88552636
  -1/2 Hartree   DENC   =        -0.40831236
  -exchange  EXHF       =         0.00000000
  -V(xc)+E(xc)   XCENC  =      -104.97190450
  PAW double counting   =       264.80062850     -136.98248303
  entropy T*S    EENTRO =        -0.00498475
  eigenvalues    EBANDS =        56.48206232
  atomic energy  EATOM  =       214.14321246
  ---------------------------------------------------
  free energy    TOTEN  =        -1.64009225 eV

  energy without entropy =       -1.63510750  energy(sigma->0) =       -1.63843067


--------------------------------------------------------------------------------------------------------


 E-fermi :  10.1911     XC(G=0): -10.1387     alpha+bet :-14.8495


 k-point   1 :       0.0500    0.0500    0.0500
  band No.  band energies     occupation 
      1      -3.0450      2.00000
      2       5.6520      2.00000
      3       6.4397      2.00000
      4       7.3101      2.00000
      5       8.0061      2.00000
      6       8.4593      2.00000
      7       9.7407      2.00652
      8      14.2732      0.00000
      9      14.7185      0.00000
     10      16.0190      0.00000
     11      17.4573      0.00000
     12      20.7870      0.00000

 k-point   2 :       0.1500    0.0500    0.0500
  band No.  band energies     occupation 
      1      -2.8280      2.00000
      2       4.5250      2.00000
      3       5.9208      2.00000
      4       6.2723      2.00000
      5       7.8335      2.00000
      6       9.8142      2.02277
      7      10.4448     -0.07037
      8      13.6495      0.00000
      9      14.8332      0.00000
     10      16.9225      0.00000
     11      18.2782      0.00000
     12      19.8030      0.00000

 k-point   3 :       0.2500    0.0500    0.0500
  band No.  band energies     occupation 
      1      -2.2840      2.00000
      2       2.5592      2.00000
      3       6.7450      2.00000
      4       7.3185      2.00000
      5       8.8427      2.00000
      6       9.3634      2.00000
      7      11.9349      0.00000
      8      13.1238      0.00000
      9      14.4543      0.00000
     10      16.0589      0.00000
     11      18.8187      0.00000
     12      20.4236      0.00000

 k-point   4 :       0.3500    0.0500    0.0500
  band No.  band energies     occupation 
      1      -1.6039      2.00000
      2       1.1986      2.00000
      3       6.7276      2.00000
      4       7.2138      2.00000
      5       9.2425      2.00000
      6       9.6466      2.00081
      7      10.7068     -0.00162
      8      11.5915      0.00000
      9      13.3673      0.00000
     10      13.8176      0.00000
     11      17.3402      0.00000
     12      20.9673      0.00000

 k-point   5 :       0.4500    0.0500    0.0500
  band No.  band energies     occupation 
      1      -0.7691      2.00000
      2       0.1692      2.00000
      3       7.9758      2.00000
      4       8.1440      2.00000
      5       9.3411      2.00000
      6      10.2820      0.31193
      7      11.1710      0.00000
      8      12.1185      0.00000
      9      12.6314      0.00000
     10      15.9415      0.00000
     11      17.8715      0.00000
     12      19.7730      0.00000

 k-point   6 :       0.1500    0.1500    0.0500
  band No.  band energies     occupation 
      1      -2.6089      2.00000
      2       4.3809      2.00000
      3       5.0437      2.00000
      4       6.6367      2.00000
      5       8.5605      2.00000
      6      10.6000     -0.01382
      7      11.9002      0.00000
      8      13.2477      0.00000
      9      14.7427      0.00000
     10      15.9117      0.00000
     11      17.6940      0.00000
     12      21.1653      0.00000

 k-point   7 :       0.2500    0.1500    0.0500
  band No.  band energies     occupation 
      1      -2.2129      2.00000
      2       3.2215      2.00000
      3       4.8293      2.00000
      4       6.2715      2.00000
      5       9.1304      2.00000
      6       9.8118      2.02202
      7      10.7691     -0.00034
      8      12.2919      0.00000
      9      13.3093      0.00000
     10      15.3265      0.00000
     11      17.3073      0.00000
     12      20.7563      0.00000

 k-point   8 :       0.3500    0.1500    0.0500
  band No.  band energies     occupation 
      1      -1.3366      2.00000
      2       1.6156      2.00000
      3       5.7417      2.00000
      4       7.9505      2.00000
      5       9.1430      2.00000
      6      10.3591      0.00087
      7      11.6908      0.00000
      8      13.6366      0.00000
      9      14.7241      0.00000
     10      16.8508      0.00000
     11      18.4269      0.00000
     12      21.2671      0.00000

 k-point   9 :       0.4500    0.1500    0.0500
  band No.  band energies     occupation 
      1      -0.6109      2.00000
      2       0.2685      2.00000
      3       5.9304      2.00000
      4       6.6514      2.00000
      5       8.6350      2.00000
      6      10.5511     -0.02886
      7      11.3926      0.00000
      8      12.3822      0.00000
      9      12.9579      0.00000
     10      16.6462      0.00000
     11      17.3543      0.00000
     12      20.1233      0.00000

 k-point  10 :       0.2500    0.2500    0.0500
  band No.  band energies     occupation 
      1      -1.4264      2.00000
      2       2.9508      2.00000
      3       3.0479      2.00000
      4       7.0475      2.00000
      5       8.0683      2.00000
      6       9.8093      2.02119
      7      11.3178      0.00000
      8      13.5912      0.00000
      9      14.6011      0.00000
     10      15.5174      0.00000
     11      17.3739      0.00000
     12      19.1226      0.00000

 k-point  11 :       0.3500    0.2500    0.0500
  band No.  band energies     occupation 
      1      -0.9022      2.00000
      2       1.7937      2.00000
      3       4.1957      2.00000
      4       6.7249      2.00000
      5       8.3360      2.00000
      6      10.2532      0.50156
      7      10.7662     -0.00037
      8      12.9327      0.00000
      9      13.5253      0.00000
     10      16.0378      0.00000
     11      17.8312      0.00000
     12      20.1541      0.00000

 k-point  12 :       0.4500    0.2500    0.0500
  band No.  band energies     occupation 
      1      -0.2025      2.00000
      2       0.5050      2.00000
      3       4.3367      2.00000
      4       5.2514      2.00000
      5       8.3830      2.00000
      6       9.3975      2.00000
      7      11.6642      0.00000
      8      11.8458      0.00000
      9      13.8404      0.00000
     10      15.6550      0.00000
     11      18.1938      0.00000
     12      20.7274      0.00000

 k-point  13 :       0.3500    0.3500    0.0500
  band No.  band energies     occupation 
      1      -0.6232      2.00000
      2       2.2617      2.00000
      3       2.6122      2.00000
      4       5.2135      2.00000
      5       8.4036      2.00000
      6      11.0638      0.00000
      7      12.2425      0.00000
      8      13.8797      0.00000
      9      14.0235      0.00000
     10      14.8707      0.00000
     11      20.3310      0.00000
     12      22.1193      0.00000

 k-point  14 :       0.4500    0.3500    0.0500
  band No.  band energies     occupation 
      1       0.3248      2.00000
      2       1.3481      2.00000
      3       2.9346      2.00000
      4       4.3761      2.00000
      5       9.1011      2.00000
      6      10.1613      1.24974
      7      12.4782      0.00000
      8      13.8648      0.00000
      9      14.8591      0.00000
     10      16.3911      0.00000
     11      17.1775      0.00000
     12      21.3872      0.00000

 k-point  15 :       0.4500    0.4500    0.0500
  band No.  band energies     occupation 
      1       0.9499      2.00000
      2       1.6814      2.00000
      3       1.9202      2.00000
      4       2.8103      2.00000
      5       9.1618      2.00000
      6      10.1833      1.06608
      7      11.4900      0.00000
      8      12.7151      0.00000
      9      13.4740      0.00000
     10      14.1654      0.00000
     11      17.2787      0.00000
     12      20.3901      0.00000

 k-point  16 :       0.1500    0.1500    0.1500
  band No.  band energies     occupation 
      1      -2.4482      2.00000
      2       4.1244      2.00000
      3       4.5661      2.00000
      4       4.9657      2.00000
      5       9.7993      2.01820
      6      10.7127     -0.00141
      7      11.2315      0.00000
      8      11.5139      0.00000
      9      13.9384      0.00000
     10      16.5048      0.00000
     11      18.5407      0.00000
     12      19.7133      0.00000

 k-point  17 :       0.2500    0.1500    0.1500
  band No.  band energies     occupation 
      1      -2.0298      2.00000
      2       2.7540      2.00000
      3       4.6408      2.00000
      4       4.9753      2.00000
      5       9.2660      2.00000
      6      10.4446     -0.07039
      7      11.4539      0.00000
      8      12.5882      0.00000
      9      13.3611      0.00000
     10      15.7392      0.00000
     11      17.8747      0.00000
     12      20.0822      0.00000

 k-point  18 :       0.3500    0.1500    0.1500
  band No.  band energies     occupation 
      1      -1.2441      2.00000
      2       1.7041      2.00000
      3       5.0241      2.00000
      4       6.2498      2.00000
      5       8.2991      2.00000
      6       9.3971      2.00000
      7      11.6409      0.00000
      8      13.9264      0.00000
      9      14.5561      0.00000
     10      16.4344      0.00000
     11      18.6962      0.00000
     12      19.0774      0.00000

 k-point  19 :       0.4500    0.1500    0.1500
  band No.  band energies     occupation 
      1      -0.4496      2.00000
      2       1.1934      2.00000
      3       5.9288      2.00000
      4       6.6900      2.00000
      5       7.0590      2.00000
      6       8.6817      2.00000
      7      13.4877      0.00000
      8      13.7525      0.00000
      9      15.1197      0.00000
     10      16.8000      0.00000
     11      20.0375      0.00000
     12      22.6965      0.00000

 k-point  20 :       0.2500    0.2500    0.1500
  band No.  band energies     occupation 
      1      -1.6708      2.00000
      2       3.1810      2.00000
      3       3.6657      2.00000
      4       6.0010      2.00000
      5       8.1149      2.00000
      6      10.0764      1.81557
      7      11.3872      0.00000
      8      12.4454      0.00000
      9      14.7454      0.00000
     10      17.9366      0.00000
     11      19.6556      0.00000
     12      21.2257      0.00000

 k-point  21 :       0.3500    0.2500    0.1500
  band No.  band energies     occupation 
      1      -0.9941      2.00000
      2       1.9536      2.00000
      3       4.1583      2.00000
      4       6.1099      2.00000
      5       7.4667      2.00000
      6      10.9195      0.00000
      7      11.5054      0.00000
      8      12.8638      0.00000
      9      14.3871      0.00000
     10      17.1033      0.00000
     11      19.0169      0.00000
     12      21.7877      0.00000

 k-point  22 :       0.4500    0.2500    0.1500
  band No.  band energies     occupation 
      1      -0.1936      2.00000
      2       1.0205      2.00000
      3       5.0891      2.00000
      4       5.6013      2.00000
      5       7.5710      2.00000
      6       8.3623      2.00000
      7      12.7831      0.00000
      8      13.7717      0.00000
      9      16.1291      0.00000
     10      17.8244      0.00000
     11      19.9760      0.00000
     12      21.6555      0.00000

 k-point  23 :       0.3500    0.3500    0.1500
  band No.  band energies     occupation 
      1      -0.3933      2.00000
      2       2.4955      2.00000
      3       3.0803      2.00000
      4       5.9694      2.00000
      5       6.7893      2.00000
      6       9.1510      2.00000
      7      10.3153      0.14182
      8      13.5034      0.00000
      9      15.9659      0.00000
     10      18.2230      0.00000
     11      19.7118      0.00000
     12      22.0773      0.00000

 k-point  24 :       0.4500    0.3500    0.1500
  band No.  band energies     occupation 
      1       0.4024      2.00000
      2       1.1958      2.00000
      3       3.4202      2.00000
      4       5.1056      2.00000
      5       7.7221      2.00000
      6       9.1538      2.00000
      7      11.2561      0.00000
      8      11.7230      0.00000
      9      14.3299      0.00000
     10      17.3244      0.00000
     11      19.9067      0.00000
     12      23.0638      0.00000

 k-point  25 :       0.4500    0.4500    0.1500
  band No.  band energies     occupation 
      1       1.0635      2.00000
      2       2.2160      2.00000
      3       2.7392      2.00000
      4       3.4856      2.00000
      5       7.9664      2.00000
      6       9.3408      2.00000
      7       9.6457      2.00079
      8      13.1132      0.00000
      9      15.7637      0.00000
     10      18.1911      0.00000
     11      19.7066      0.00000
     12      20.4769      0.00000

 k-point  26 :       0.2500    0.2500    0.2500
  band No.  band energies     occupation 
      1      -0.4282      2.00000
      2       3.5908      2.00000
      3       3.9837      2.00000
      4       4.6462      2.00000
      5       8.5686      2.00000
      6       9.0303      2.00000
      7      10.8786     -0.00001
      8      13.2881      0.00000
      9      14.3857      0.00000
     10      17.9045      0.00000
     11      19.4692      0.00000
     12      22.2127      0.00000

 k-point  27 :       0.3500    0.2500    0.2500
  band No.  band energies     occupation 
      1      -0.6450      2.00000
      2       2.1228      2.00000
      3       3.9133      2.00000
      4       4.6851      2.00000
      5       6.8591      2.00000
      6       7.6786      2.00000
      7       9.5098      2.00002
      8      13.3101      0.00000
      9      15.3203      0.00000
     10      17.2001      0.00000
     11      18.4565      0.00000
     12      20.6029      0.00000

 k-point  28 :       0.4500    0.2500    0.2500
  band No.  band energies     occupation 
      1       0.2178      2.00000
      2       1.4329      2.00000
      3       5.1982      2.00000
      4       5.7865      2.00000
      5       6.2685      2.00000
      6       7.6025      2.00000
      7      10.9131      0.00000
      8      14.8667      0.00000
      9      16.6710      0.00000
     10      18.5332      0.00000
     11      19.1910      0.00000
     12      24.0835      0.00000

 k-point  29 :       0.3500    0.3500    0.2500
  band No.  band energies     occupation 
      1       0.2002      2.00000
      2       2.8434      2.00000
      3       3.4628      2.00000
      4       4.9932      2.00000
      5       6.5868      2.00000
      6       7.6504      2.00000
      7       9.2926      2.00000
      8      13.6391      0.00000
      9      16.1806      0.00000
     10      17.0046      0.00000
     11      17.7894      0.00000
     12      22.8431      0.00000

 k-point  30 :       0.4500    0.3500    0.2500
  band No.  band energies     occupation 
      1       1.2506      2.00000
      2       1.6931      2.00000
      3       3.6030      2.00000
      4       4.7421      2.00000
      5       5.5377      2.00000
      6       7.0402      2.00000
      7       8.6894      2.00000
      8      10.1083      1.63910
      9      16.1979      0.00000
     10      18.4389      0.00000
     11      20.0174      0.00000
     12      20.8842      0.00000

 k-point  31 :       0.4500    0.4500    0.2500
  band No.  band energies     occupation 
      1       1.3757      2.00000
      2       2.3570      2.00000
      3       2.4951      2.00000
      4       3.7020      2.00000
      5       6.7877      2.00000
      6       7.3042      2.00000
      7       7.5819      2.00000
      8      12.0448      0.00000
      9      18.3990      0.00000
     10      19.3962      0.00000
     11      21.0188      0.00000
     12      21.6008      0.00000

 k-point  32 :       0.3500    0.3500    0.3500
  band No.  band energies     occupation 
      1       0.6970      2.00000
      2       3.2678      2.00000
      3       3.5670      2.00000
      4       4.6046      2.00000
      5       6.0967      2.00000
      6       6.8201      2.00000
      7       8.5552      2.00000
      8      11.1002      0.00000
      9      17.2460      0.00000
     10      18.6242      0.00000
     11      20.6687      0.00000
     12      23.0478      0.00000

 k-point  33 :       0.4500    0.3500    0.3500
  band No.  band energies     occupation 
      1       1.6820      2.00000
      2       2.5870      2.00000
      3       3.8552      2.00000
      4       4.3349      2.00000
      5       5.4937      2.00000
      6       7.2406      2.00000
      7       8.4159      2.00000
      8       9.5169      2.00002
      9      17.5988      0.00000
     10      18.7453      0.00000
     11      20.7273      0.00000
     12      23.8205      0.00000

 k-point  34 :       0.4500    0.4500    0.3500
  band No.  band energies     occupation 
      1       2.1327      2.00000
      2       2.8656      2.00000
      3       3.3794      2.00000
      4       4.4939      2.00000
      5       5.2732      2.00000
      6       5.6804      2.00000
      7       6.9980      2.00000
      8       8.0296      2.00000
      9      19.3807      0.00000
     10      20.3475      0.00000
     11      21.6383      0.00000
     12      23.0836      0.00000

 k-point  35 :       0.4500    0.4500    0.4500
  band No.  band energies     occupation 
      1       2.7318      2.00000
      2       3.4105      2.00000
      3       3.9023      2.00000
      4       3.9602      2.00000
      5       4.3581      2.00000
      6       5.0394      2.00000
      7       7.3373      2.00000
      8       8.4351      2.00000
      9      20.1326      0.00000
     10      21.2931      0.00000
     11      21.9576      0.00000
     12      22.6512      0.00000


----------------------------------------- Iteration    1(   2)  ---------------------------------------


     EDDAV:  cpu time    0.14: real time    0.14
       DOS:  cpu time    0.00: real time    0.00
    --------------------------------------------
      LOOP:  cpu time    0.14: real time    0.15

 eigenvalue-minimisations  :  1108
 total energy-change (2. order) :-0.1305069E+02  (-0.1232913E+02)
 number of electron      12.0000000 magnetization 
 augmentation part       12.0000000 magnetization 

 Free energy of the ion-electron system (eV)
  ---------------------------------------------------
  alpha Z        PSCENC =        -0.81278453
  Ewald energy   TEWEN  =      -293.88552636
  -1/2 Hartree   DENC   =        -0.40831236
  -exchange  EXHF       =         0.00000000
  -V(xc)+E(xc)   XCENC  =      -104.97190450
  PAW double counting   =       264.80062850     -136.98248303
  entropy T*S    EENTRO =        -0.00067395
  eigenvalues    EBANDS =        43.42705934
  atomic energy  EATOM  =       214.14321246
  ---------------------------------------------------
  free energy    TOTEN  =       -14.69078444 eV

  energy without entropy =      -14.69011049  energy(sigma->0) =      -14.69055979


--------------------------------------------------------------------------------------------------------


 E-fermi :   8.1338     XC(G=0): -10.1387     alpha+bet :-14.8495


 k-point   1 :       0.0500    0.0500    0.0500
  band No.  band energies     occupation 
      1      -3.0506      2.00000
      2       4.7324      2.00000
      3       4.7370      2.00000
      4       4.7761      2.00000
      5       6.9150      2.00000
      6       6.9199      2.00000
      7       6.9623      2.00000
      8      12.4607      0.00000
      9      12.6161      0.00000
     10      13.3960      0.00000
     11      13.8925      0.00000
     12      14.7287      0.00000

 k-point   2 :       0.1500    0.0500    0.0500
  band No.  band energies     occupation 
      1      -2.8691      2.00000
      2       3.3337      2.00000
      3       4.9029      2.00000
      4       4.9264      2.00000
      5       7.0792      2.00000
      6       7.2124      2.00000
      7       8.6819     -0.00074
      8      10.8575      0.00000
      9      11.0753      0.00000
     10      12.5009      0.00000
     11      13.1243      0.00000
     12      14.5876      0.00000

 k-point   3 :       0.2500    0.0500    0.0500
  band No.  band energies     occupation 
      1      -2.5037      2.00000
      2       1.9337      2.00000
      3       5.2458      2.00000
      4       5.3079      2.00000
      5       7.4258      2.00001
      6       7.4424      2.00001
      7       9.5755      0.00000
      8       9.6334      0.00000
      9      10.8896      0.00000
     10      11.7827      0.00000
     11      11.8705      0.00000
     12      12.8568      0.00000

 k-point   4 :       0.3500    0.0500    0.0500
  band No.  band energies     occupation 
      1      -1.9584      2.00000
      2       0.7117      2.00000
      3       5.7478      2.00000
      4       5.7997      2.00000
      5       7.8623      2.06642
      6       7.9498      2.02942
      7       8.3552     -0.06592
      8       8.4028     -0.06715
      9      10.6348      0.00000
     10      10.8408      0.00000
     11      13.5886      0.00000
     12      14.3092      0.00000

 k-point   5 :       0.4500    0.0500    0.0500
  band No.  band energies     occupation 
      1      -1.2409      2.00000
      2      -0.3525      2.00000
      3       6.4233      2.00000
      4       6.4549      2.00000
      5       7.2787      2.00000
      6       7.2948      2.00000
      7       8.5631     -0.00968
      8       8.6269     -0.00270
      9       9.7617      0.00000
     10       9.7894      0.00000
     11      14.8355      0.00000
     12      15.2744      0.00000

 k-point   6 :       0.1500    0.1500    0.0500
  band No.  band energies     occupation 
      1      -2.6880      2.00000
      2       3.5016      2.00000
      3       3.5296      2.00000
      4       5.1479      2.00000
      5       7.2931      2.00000
      6       8.8618      0.00000
      7       8.9806      0.00000
      8       9.5275      0.00000
      9      11.0248      0.00000
     10      11.1277      0.00000
     11      13.1106      0.00000
     12      13.3161      0.00000

 k-point   7 :       0.2500    0.1500    0.0500
  band No.  band energies     occupation 
      1      -2.3266      2.00000
      2       2.1381      2.00000
      3       3.8331      2.00000
      4       5.4063      2.00000
      5       7.5627      2.00041
      6       8.2566      0.14748
      7       9.2136      0.00000
      8       9.7174      0.00000
      9      10.8369      0.00000
     10      11.3880      0.00000
     11      12.2857      0.00000
     12      13.6244      0.00000

 k-point   8 :       0.3500    0.1500    0.0500
  band No.  band energies     occupation 
      1      -1.7751      2.00000
      2       0.8943      2.00000
      3       4.3801      2.00000
      4       5.9575      2.00000
      5       7.0036      2.00000
      6       8.2386      0.23398
      7       9.1815      0.00000
      8       9.7332      0.00000
      9      11.2218      0.00000
     10      12.3538      0.00000
     11      13.1503      0.00000
     12      13.9300      0.00000

 k-point   9 :       0.4500    0.1500    0.0500
  band No.  band energies     occupation 
      1      -1.0630      2.00000
      2      -0.1782      2.00000
      3       5.0296      2.00000
      4       5.8759      2.00000
      5       6.6333      2.00000
      6       7.5505      2.00030
      7       8.8807      0.00000
      8       9.9576      0.00000
      9      10.6464      0.00000
     10      12.2304      0.00000
     11      13.2286      0.00000
     12      14.6175      0.00000

 k-point  10 :       0.2500    0.2500    0.0500
  band No.  band energies     occupation 
      1      -1.9568      2.00000
      2       2.4525      2.00000
      3       2.4604      2.00000
      4       5.7931      2.00000
      5       6.7677      2.00000
      6       8.0500      1.64478
      7       9.9760      0.00000
      8      10.0982      0.00000
      9      11.1687      0.00000
     10      11.6011      0.00000
     11      12.3078      0.00000
     12      12.4847      0.00000

 k-point  11 :       0.3500    0.2500    0.0500
  band No.  band energies     occupation 
      1      -1.4212      2.00000
      2       1.2373      2.00000
      3       2.9950      2.00000
      4       5.5558      2.00000
      5       6.2906      2.00000
      6       8.5845     -0.00648
      7       8.8640      0.00000
      8      10.5223      0.00000
      9      11.1867      0.00000
     10      12.0240      0.00000
     11      12.8218      0.00000
     12      13.9333      0.00000

 k-point  12 :       0.4500    0.2500    0.0500
  band No.  band energies     occupation 
      1      -0.7093      2.00000
      2       0.1775      2.00000
      3       3.6719      2.00000
      4       4.5425      2.00000
      5       7.0298      2.00000
      6       7.8196      2.04881
      7       9.2719      0.00000
      8      10.1422      0.00000
      9      11.2523      0.00000
     10      12.3108      0.00000
     11      12.7165      0.00000
     12      13.2577      0.00000

 k-point  13 :       0.3500    0.3500    0.0500
  band No.  band energies     occupation 
      1      -0.8893      2.00000
      2       1.7613      2.00000
      3       1.7891      2.00000
      4       4.3847      2.00000
      5       6.8189      2.00000
      6       9.1046      0.00000
      7       9.3305      0.00000
      8       9.4324      0.00000
      9      11.5680      0.00000
     10      11.6954      0.00000
     11      13.0575      0.00000
     12      14.6562      0.00000

 k-point  14 :       0.4500    0.3500    0.0500
  band No.  band energies     occupation 
      1      -0.1752      2.00000
      2       0.7081      2.00000
      3       2.4596      2.00000
      4       3.3629      2.00000
      5       7.5408      2.00023
      6       8.4167     -0.06244
      7       9.7456      0.00000
      8      10.0747      0.00000
      9      10.6090      0.00000
     10      11.1123      0.00000
     11      12.7686      0.00000
     12      13.0826      0.00000

 k-point  15 :       0.4500    0.4500    0.0500
  band No.  band energies     occupation 
      1       0.5314      2.00000
      2       1.4095      2.00000
      3       1.4161      2.00000
      4       2.2861      2.00000
      5       8.1473      0.88571
      6       8.9697      0.00000
      7       9.2171      0.00000
      8      10.0281      0.00000
      9      10.5214      0.00000
     10      11.2774      0.00000
     11      12.1838      0.00000
     12      17.4515      0.00000

 k-point  16 :       0.1500    0.1500    0.1500
  band No.  band energies     occupation 
      1      -2.5076      2.00000
      2       3.6468      2.00000
      3       3.6529      2.00000
      4       3.6744      2.00000
      5       8.9596      0.00000
      6       8.9867      0.00000
      7       8.9990      0.00000
      8       9.6786      0.00000
      9       9.6878      0.00000
     10       9.8918      0.00000
     11      14.5691      0.00000
     12      15.2826      0.00000

 k-point  17 :       0.2500    0.1500    0.1500
  band No.  band energies     occupation 
      1      -2.1473      2.00000
      2       2.2887      2.00000
      3       3.9896      2.00000
      4       3.9961      2.00000
      5       8.2232      0.32069
      6       8.3007      0.00327
      7       9.4032      0.00000
      8       9.4443      0.00000
      9       9.9615      0.00000
     10      12.1141      0.00000
     11      13.7904      0.00000
     12      14.0980      0.00000

 k-point  18 :       0.3500    0.1500    0.1500
  band No.  band energies     occupation 
      1      -1.5998      2.00000
      2       1.0605      2.00000
      3       4.5037      2.00000
      4       4.5619      2.00000
      5       7.0802      2.00000
      6       7.1284      2.00000
      7       9.8748      0.00000
      8       9.9762      0.00000
      9      10.6483      0.00000
     10      12.6434      0.00000
     11      12.8429      0.00000
     12      13.9989      0.00000

 k-point  19 :       0.4500    0.1500    0.1500
  band No.  band energies     occupation 
      1      -0.8870      2.00000
      2       0.0322      2.00000
      3       5.1799      2.00000
      4       5.2410      2.00000
      5       6.0886      2.00000
      6       6.1257      2.00000
      7      10.6268      0.00000
      8      10.8750      0.00000
      9      11.4085      0.00000
     10      11.5949      0.00000
     11      12.3119      0.00000
     12      14.3652      0.00000

 k-point  20 :       0.2500    0.2500    0.1500
  band No.  band energies     occupation 
      1      -1.7867      2.00000
      2       2.6349      2.00000
      3       2.6530      2.00000
      4       4.3615      2.00000
      5       6.9738      2.00000
      6       8.6201     -0.00312
      7       8.7915     -0.00003
      8       9.7726      0.00000
      9      11.3986      0.00000
     10      11.5565      0.00000
     11      13.1519      0.00000
     12      13.8987      0.00000

 k-point  21 :       0.3500    0.2500    0.1500
  band No.  band energies     occupation 
      1      -1.2467      2.00000
      2       1.4188      2.00000
      3       3.1547      2.00000
      4       4.8855      2.00000
      5       5.7831      2.00000
      6       7.5877      2.00078
      7       9.1433      0.00000
      8      10.3505      0.00000
      9      11.8117      0.00000
     10      12.2639      0.00000
     11      12.9963      0.00000
     12      13.5948      0.00000

 k-point  22 :       0.4500    0.2500    0.1500
  band No.  band energies     occupation 
      1      -0.5332      2.00000
      2       0.3588      2.00000
      3       3.8660      2.00000
      4       4.7025      2.00000
      5       5.6071      2.00000
      6       6.4569      2.00000
      7       9.9262      0.00000
      8      10.6875      0.00000
      9      10.9471      0.00000
     10      11.8374      0.00000
     11      12.8235      0.00000
     12      14.7515      0.00000

 k-point  23 :       0.3500    0.3500    0.1500
  band No.  band energies     occupation 
      1      -0.7114      2.00000
      2       1.9373      2.00000
      3       1.9496      2.00000
      4       4.5249      2.00000
      5       5.4040      2.00000
      6       7.9517      2.02638
      7       8.0061      1.87297
      8      10.6941      0.00000
      9      11.0573      0.00000
     10      13.3662      0.00000
     11      13.8179      0.00000
     12      15.5179      0.00000

 k-point  24 :       0.4500    0.3500    0.1500
  band No.  band energies     occupation 
      1       0.0027      2.00000
      2       0.8839      2.00000
      3       2.6411      2.00000
      4       3.5157      2.00000
      5       6.1107      2.00000
      6       6.9656      2.00000
      7       8.6672     -0.00106
      8       9.5540      0.00000
      9      11.4745      0.00000
     10      12.5903      0.00000
     11      14.3008      0.00000
     12      15.1091      0.00000

 k-point  25 :       0.4500    0.4500    0.1500
  band No.  band energies     occupation 
      1       0.7077      2.00000
      2       1.5918      2.00000
      3       1.5978      2.00000
      4       2.4704      2.00000
      5       6.8020      2.00000
      6       7.6279      2.00203
      7       7.9081      2.06765
      8       8.8132     -0.00002
      9      12.4647      0.00000
     10      12.8892      0.00000
     11      13.1326      0.00000
     12      13.8929      0.00000

 k-point  26 :       0.2500    0.2500    0.2500
  band No.  band energies     occupation 
      1      -1.4165      2.00000
      2       2.9772      2.00000
      3       2.9854      2.00000
      4       3.0138      2.00000
      5       7.2700      2.00000
      6       7.2957      2.00000
      7       7.3558      2.00000
      8      11.5256      0.00000
      9      11.7196      0.00000
     10      11.7566      0.00000
     11      11.8191      0.00000
     12      15.2901      0.00000

 k-point  27 :       0.3500    0.2500    0.2500
  band No.  band energies     occupation 
      1      -0.8904      2.00000
      2       1.7579      2.00000
      3       3.4918      2.00000
      4       3.5233      2.00000
      5       6.0943      2.00000
      6       6.1159      2.00000
      7       7.7935      2.03695
      8      10.4491      0.00000
      9      12.2205      0.00000
     10      13.3861      0.00000
     11      14.5341      0.00000
     12      15.0261      0.00000

 k-point  28 :       0.4500    0.2500    0.2500
  band No.  band energies     occupation 
      1      -0.1730      2.00000
      2       0.7092      2.00000
      3       4.1950      2.00000
      4       4.2780      2.00000
      5       5.0801      2.00000
      6       5.1082      2.00000
      7       8.5474     -0.01274
      8       9.5468      0.00000
      9      12.8354      0.00000
     10      13.1822      0.00000
     11      13.8035      0.00000
     12      14.3821      0.00000

 k-point  29 :       0.3500    0.3500    0.2500
  band No.  band energies     occupation 
      1      -0.3521      2.00000
      2       2.2873      2.00000
      3       2.2940      2.00000
      4       4.0035      2.00000
      5       4.9490      2.00000
      6       6.6069      2.00000
      7       6.6517      2.00000
      8       9.2796      0.00000
      9      12.8070      0.00000
     10      14.3421      0.00000
     11      14.4071      0.00000
     12      15.6145      0.00000

 k-point  30 :       0.4500    0.3500    0.2500
  band No.  band energies     occupation 
      1       0.3665      2.00000
      2       1.2354      2.00000
      3       2.9855      2.00000
      4       3.8448      2.00000
      5       4.7446      2.00000
      6       5.6004      2.00000
      7       7.3015      2.00000
      8       8.1427      0.92445
      9      13.4093      0.00000
     10      14.2947      0.00000
     11      15.4426      0.00000
     12      16.1234      0.00000

 k-point  31 :       0.4500    0.4500    0.2500
  band No.  band energies     occupation 
      1       1.0647      2.00000
      2       1.9366      2.00000
      3       1.9405      2.00000
      4       2.8101      2.00000
      5       5.4564      2.00000
      6       6.2627      2.00000
      7       6.3271      2.00000
      8       7.2214      2.00000
      9      14.7130      0.00000
     10      15.0869      0.00000
     11      15.7575      0.00000
     12      17.2238      0.00000

 k-point  32 :       0.3500    0.3500    0.3500
  band No.  band energies     occupation 
      1       0.1793      2.00000
      2       2.8042      2.00000
      3       2.8103      2.00000
      4       2.8200      2.00000
      5       5.4143      2.00000
      6       5.4205      2.00000
      7       5.4260      2.00000
      8       7.9995      1.89882
      9      14.9694      0.00000
     10      15.1028      0.00000
     11      15.9666      0.00000
     12      17.9788      0.00000

 k-point  33 :       0.4500    0.3500    0.3500
  band No.  band energies     occupation 
      1       0.8936      2.00000
      2       1.7650      2.00000
      3       3.4861      2.00000
      4       3.5041      2.00000
      5       4.4044      2.00000
      6       4.4155      2.00000
      7       6.1045      2.00000
      8       6.9916      2.00000
      9      15.6811      0.00000
     10      16.2662      0.00000
     11      16.8452      0.00000
     12      18.3982      0.00000

 k-point  34 :       0.4500    0.4500    0.3500
  band No.  band energies     occupation 
      1       1.5947      2.00000
      2       2.4613      2.00000
      3       2.4668      2.00000
      4       3.3328      2.00000
      5       4.2298      2.00000
      6       5.0719      2.00000
      7       5.0839      2.00000
      8       5.9311      2.00000
      9      16.2372      0.00000
     10      16.8825      0.00000
     11      17.5019      0.00000
     12      17.8238      0.00000

 k-point  35 :       0.4500    0.4500    0.4500
  band No.  band energies     occupation 
      1       2.2892      2.00000
      2       3.1438      2.00000
      3       3.1476      2.00000
      4       3.1519      2.00000
      5       4.0475      2.00000
      6       4.0542      2.00000
      7       4.0682      2.00000
      8       4.9131      2.00000
      9      18.4731      0.00000
     10      18.6766      0.00000
     11      18.9293      0.00000
     12      19.2029      0.00000


----------------------------------------- Iteration    1(   3)  ---------------------------------------


     EDDAV:  cpu time    0.14: real time    0.13
       DOS:  cpu time    0.00: real time    0.00
    --------------------------------------------
      LOOP:  cpu time    0.14: real time    0.14

 eigenvalue-minimisations  :  1076
 total energy-change (2. order) :-0.3508738E+00  (-0.3486833E+00)
 number of electron      12.0000000 magnetization 
 augmentation part       12.0000000 magnetization 

 Free energy of the ion-electron system (eV)
  ---------------------------------------------------
  alpha Z        PSCENC =        -0.81278453
  Ewald energy   TEWEN  =      -293.88552636
  -1/2 Hartree   DENC   =        -0.40831236
  -exchange  EXHF       =         0.00000000
  -V(xc)+E(xc)   XCENC  =      -104.97190450
  PAW double counting   =       264.80062850     -136.98248303
  entropy T*S    EENTRO =        -0.00053414
  eigenvalues    EBANDS =        43.07604574
  atomic energy  EATOM  =       214.14321246
  ---------------------------------------------------
  free energy    TOTEN  =       -15.04165823 eV

  energy without entropy =      -15.04112408  energy(sigma->0) =      -15.04148018


--------------------------------------------------------------------------------------------------------


 E-fermi :   8.0941     XC(G=0): -10.1387     alpha+bet :-14.8495


 k-point   1 :       0.0500    0.0500    0.0500
  band No.  band energies     occupation 
      1      -3.0507      2.00000
      2       4.7239      2.00000
      3       4.7239      2.00000
      4       4.7239      2.00000
      5       6.9036      2.00000
      6       6.9036      2.00000
      7       6.9036      2.00000
      8      12.1903      0.00000
      9      12.1958      0.00000
     10      12.2126      0.00000
     11      13.6785      0.00000
     12      13.8236      0.00000

 k-point   2 :       0.1500    0.0500    0.0500
  band No.  band energies     occupation 
      1      -2.8697      2.00000
      2       3.2983      2.00000
      3       4.8930      2.00000
      4       4.8931      2.00000
      5       7.0743      2.00000
      6       7.0747      2.00000
      7       8.6453     -0.00069
      8      10.7760      0.00000
      9      10.7779      0.00000
     10      12.3569      0.00000
     11      12.8789      0.00000
     12      12.9075      0.00000

 k-point   3 :       0.2500    0.0500    0.0500
  band No.  band energies     occupation 
      1      -2.5084      2.00000
      2       1.9260      2.00000
      3       5.2303      2.00000
      4       5.2305      2.00000
      5       7.4087      2.00001
      6       7.4088      2.00001
      7       9.4592      0.00000
      8       9.4601      0.00000
      9      10.6525      0.00000
     10      11.7163      0.00000
     11      11.7217      0.00000
     12      12.7149      0.00000

 k-point   4 :       0.3500    0.0500    0.0500
  band No.  band energies     occupation 
      1      -1.9679      2.00000
      2       0.7010      2.00000
      3       5.7349      2.00000
      4       5.7351      2.00000
      5       7.8485      2.07091
      6       7.8494      2.07092
      7       8.3471     -0.07045
      8       8.3473     -0.07042
      9      10.6128      0.00000
     10      10.6129      0.00000
     11      12.8091      0.00000
     12      13.2286      0.00000

 k-point   5 :       0.4500    0.0500    0.0500
  band No.  band energies     occupation 
      1      -1.2508      2.00000
      2      -0.3598      2.00000
      3       6.4004      2.00000
      4       6.4005      2.00000
      5       7.2453      2.00000
      6       7.2453      2.00000
      7       8.5341     -0.00796
      8       8.5347     -0.00787
      9       9.7193      0.00000
     10       9.7194      0.00000
     11      13.9141      0.00000
     12      14.8381      0.00000

 k-point   6 :       0.1500    0.1500    0.0500
  band No.  band energies     occupation 
      1      -2.6891      2.00000
      2       3.4707      2.00000
      3       3.4709      2.00000
      4       5.0619      2.00000
      5       7.2381      2.00000
      6       8.8073     -0.00001
      7       8.8081     -0.00001
      8       9.4373      0.00000
      9      10.9462      0.00000
     10      10.9472      0.00000
     11      13.0430      0.00000
     12      13.0543      0.00000

 k-point   7 :       0.2500    0.1500    0.0500
  band No.  band energies     occupation 
      1      -2.3280      2.00000
      2       2.1006      2.00000
      3       3.8154      2.00000
      4       5.3978      2.00000
      5       7.5046      2.00025
      6       8.2010      0.22286
      7       9.0971      0.00000
      8       9.6605      0.00000
      9      10.7703      0.00000
     10      11.3120      0.00000
     11      11.8902      0.00000
     12      13.3192      0.00000

 k-point   8 :       0.3500    0.1500    0.0500
  band No.  band energies     occupation 
      1      -1.7882      2.00000
      2       0.8775      2.00000
      3       4.3303      2.00000
      4       5.8965      2.00000
      5       6.8693      2.00000
      6       8.1815      0.33257
      7       8.4323     -0.03790
      8       9.6083      0.00000
      9      10.8365      0.00000
     10      11.7638      0.00000
     11      12.2449      0.00000
     12      12.9695      0.00000

 k-point   9 :       0.4500    0.1500    0.0500
  band No.  band energies     occupation 
      1      -1.0721      2.00000
      2      -0.1822      2.00000
      3       5.0123      2.00000
      4       5.8479      2.00000
      5       6.5987      2.00000
      6       7.4261      2.00002
      7       8.8191      0.00000
      8       9.5616      0.00000
      9      10.5547      0.00000
     10      11.2816      0.00000
     11      12.4398      0.00000
     12      13.2784      0.00000

 k-point  10 :       0.2500    0.2500    0.0500
  band No.  band energies     occupation 
      1      -1.9679      2.00000
      2       2.4492      2.00000
      3       2.4492      2.00000
      4       5.7279      2.00000
      5       6.7161      2.00000
      6       8.0218      1.56961
      7       9.9275      0.00000
      8       9.9286      0.00000
      9      11.1078      0.00000
     10      11.1114      0.00000
     11      12.2647      0.00000
     12      12.2675      0.00000

 k-point  11 :       0.3500    0.2500    0.0500
  band No.  band energies     occupation 
      1      -1.4297      2.00000
      2       1.2294      2.00000
      3       2.9711      2.00000
      4       5.5280      2.00000
      5       6.2652      2.00000
      6       8.5088     -0.01252
      7       8.7687     -0.00002
      8      10.4431      0.00000
      9      10.9054      0.00000
     10      11.8430      0.00000
     11      12.5581      0.00000
     12      12.9929      0.00000

 k-point  12 :       0.4500    0.2500    0.0500
  band No.  band energies     occupation 
      1      -0.7153      2.00000
      2       0.1723      2.00000
      3       3.6628      2.00000
      4       4.5204      2.00000
      5       6.9263      2.00000
      6       7.7643      2.04165
      7       9.1802      0.00000
      8      10.0049      0.00000
      9      11.1137      0.00000
     10      11.9508      0.00000
     11      12.4106      0.00000
     12      13.1950      0.00000

 k-point  13 :       0.3500    0.3500    0.0500
  band No.  band energies     occupation 
      1      -0.8935      2.00000
      2       1.7557      2.00000
      3       1.7557      2.00000
      4       4.3533      2.00000
      5       6.7590      2.00000
      6       9.0199      0.00000
      7       9.2752      0.00000
      8       9.2776      0.00000
      9      11.5054      0.00000
     10      11.5116      0.00000
     11      11.8123      0.00000
     12      13.9111      0.00000

 k-point  14 :       0.4500    0.3500    0.0500
  band No.  band energies     occupation 
      1      -0.1818      2.00000
      2       0.7028      2.00000
      3       2.4550      2.00000
      4       3.3227      2.00000
      5       7.4308      2.00003
      6       8.2705     -0.01641
      7       9.6969      0.00000
      8       9.9489      0.00000
      9      10.5330      0.00000
     10      10.7934      0.00000
     11      12.2145      0.00000
     12      13.0185      0.00000

 k-point  15 :       0.4500    0.4500    0.0500
  band No.  band energies     occupation 
      1       0.5264      2.00000
      2       1.4068      2.00000
      3       1.4068      2.00000
      4       2.2817      2.00000
      5       8.1028      0.92634
      6       8.9419      0.00000
      7       8.9534      0.00000
      8       9.7860      0.00000
      9      10.3751      0.00000
     10      11.2076      0.00000
     11      11.2567      0.00000
     12      12.0584      0.00000

 k-point  16 :       0.1500    0.1500    0.1500
  band No.  band energies     occupation 
      1      -2.5083      2.00000
      2       3.6427      2.00000
      3       3.6428      2.00000
      4       3.6428      2.00000
      5       8.9263      0.00000
      6       8.9265      0.00000
      7       8.9267      0.00000
      8       9.6498      0.00000
      9       9.6499      0.00000
     10       9.6501      0.00000
     11      14.1452      0.00000
     12      14.2164      0.00000

 k-point  17 :       0.2500    0.1500    0.1500
  band No.  band energies     occupation 
      1      -2.1480      2.00000
      2       2.2748      2.00000
      3       3.9868      2.00000
      4       3.9868      2.00000
      5       8.2145      0.15818
      6       8.2150      0.15610
      7       9.3836      0.00000
      8       9.3844      0.00000
      9       9.8758      0.00000
     10      11.0319      0.00000
     11      13.4566      0.00000
     12      13.5004      0.00000

 k-point  18 :       0.3500    0.1500    0.1500
  band No.  band energies     occupation 
      1      -1.6089      2.00000
      2       1.0537      2.00000
      3       4.4998      2.00000
      4       4.5000      2.00000
      5       7.0668      2.00000
      6       7.0671      2.00000
      7       9.8536      0.00000
      8       9.8551      0.00000
      9      10.4030      0.00000
     10      12.4055      0.00000
     11      12.4230      0.00000
     12      12.9180      0.00000

 k-point  19 :       0.4500    0.1500    0.1500
  band No.  band energies     occupation 
      1      -0.8936      2.00000
      2      -0.0047      2.00000
      3       5.1685      2.00000
      4       5.1688      2.00000
      5       6.0706      2.00000
      6       6.0711      2.00000
      7      10.4544      0.00000
      8      10.4649      0.00000
      9      11.0875      0.00000
     10      11.5008      0.00000
     11      11.5105      0.00000
     12      11.9237      0.00000

 k-point  20 :       0.2500    0.2500    0.1500
  band No.  band energies     occupation 
      1      -1.7884      2.00000
      2       2.6230      2.00000
      3       2.6231      2.00000
      4       4.3285      2.00000
      5       6.9173      2.00000
      6       8.5795     -0.00319
      7       8.5803     -0.00313
      8       9.7045      0.00000
      9      11.3385      0.00000
     10      11.3389      0.00000
     11      12.7661      0.00000
     12      13.7811      0.00000

 k-point  21 :       0.3500    0.2500    0.1500
  band No.  band energies     occupation 
      1      -1.2508      2.00000
      2       1.4053      2.00000
      3       3.1438      2.00000
      4       4.8281      2.00000
      5       5.7542      2.00000
      6       7.4114      2.00002
      7       9.0919      0.00000
      8      10.2079      0.00000
      9      11.6769      0.00000
     10      11.7855      0.00000
     11      12.8264      0.00000
     12      13.5010      0.00000

 k-point  22 :       0.4500    0.2500    0.1500
  band No.  band energies     occupation 
      1      -0.5372      2.00000
      2       0.3493      2.00000
      3       3.8337      2.00000
      4       4.6776      2.00000
      5       5.5642      2.00000
      6       6.3990      2.00000
      7       9.7686      0.00000
      8      10.6082      0.00000
      9      10.8595      0.00000
     10      11.6281      0.00000
     11      12.6215      0.00000
     12      13.3771      0.00000

 k-point  23 :       0.3500    0.3500    0.1500
  band No.  band energies     occupation 
      1      -0.7152      2.00000
      2       1.9308      2.00000
      3       1.9309      2.00000
      4       4.5107      2.00000
      5       5.3937      2.00000
      6       7.9209      2.01007
      7       7.9211      2.00980
      8      10.4494      0.00000
      9      10.7107      0.00000
     10      13.1149      0.00000
     11      13.1312      0.00000
     12      14.0874      0.00000

 k-point  24 :       0.4500    0.3500    0.1500
  band No.  band energies     occupation 
      1      -0.0044      2.00000
      2       0.8791      2.00000
      3       2.6288      2.00000
      4       3.4942      2.00000
      5       6.0605      2.00000
      6       6.9081      2.00000
      7       8.5984     -0.00210
      8       9.4421      0.00000
      9      11.3752      0.00000
     10      12.1913      0.00000
     11      13.8238      0.00000
     12      14.6539      0.00000

 k-point  25 :       0.4500    0.4500    0.1500
  band No.  band energies     occupation 
      1       0.7029      2.00000
      2       1.5823      2.00000
      3       1.5823      2.00000
      4       2.4559      2.00000
      5       6.7396      2.00000
      6       7.5867      2.00196
      7       7.5883      2.00203
      8       8.4332     -0.03748
      9      12.0549      0.00000
     10      12.8616      0.00000
     11      12.8708      0.00000
     12      13.6917      0.00000

 k-point  26 :       0.2500    0.2500    0.2500
  band No.  band energies     occupation 
      1      -1.4296      2.00000
      2       2.9706      2.00000
      3       2.9706      2.00000
      4       2.9707      2.00000
      5       7.2621      2.00000
      6       7.2622      2.00000
      7       7.2624      2.00000
      8      11.4642      0.00000
      9      11.6787      0.00000
     10      11.6788      0.00000
     11      11.6794      0.00000
     12      15.0825      0.00000

 k-point  27 :       0.3500    0.2500    0.2500
  band No.  band energies     occupation 
      1      -0.8935      2.00000
      2       1.7559      2.00000
      3       3.4885      2.00000
      4       3.4885      2.00000
      5       6.0834      2.00000
      6       6.0834      2.00000
      7       7.7732      2.04573
      8      10.3027      0.00000
      9      12.1691      0.00000
     10      12.1751      0.00000
     11      13.8234      0.00000
     12      14.5777      0.00000

 k-point  28 :       0.4500    0.2500    0.2500
  band No.  band energies     occupation 
      1      -0.1818      2.00000
      2       0.7026      2.00000
      3       4.1648      2.00000
      4       4.1652      2.00000
      5       5.0745      2.00000
      6       5.0746      2.00000
      7       8.4517     -0.02977
      8       9.2965      0.00000
      9      12.7786      0.00000
     10      12.7830      0.00000
     11      13.7315      0.00000
     12      13.7450      0.00000

 k-point  29 :       0.3500    0.3500    0.2500
  band No.  band energies     occupation 
      1      -0.3593      2.00000
      2       2.2800      2.00000
      3       2.2800      2.00000
      4       3.9933      2.00000
      5       4.9075      2.00000
      6       6.5939      2.00000
      7       6.5940      2.00000
      8       9.1347      0.00000
      9      12.6733      0.00000
     10      14.2731      0.00000
     11      14.2807      0.00000
     12      15.1011      0.00000

 k-point  30 :       0.4500    0.3500    0.2500
  band No.  band energies     occupation 
      1       0.3498      2.00000
      2       1.2311      2.00000
      3       2.9750      2.00000
[...]

 k-point  11 :       0.3500    0.2500    0.0500
  band No.  band energies     occupation 
      1      -1.4326      2.00000
      2       1.2318      2.00000
      3       2.9769      2.00000
      4       5.5422      2.00000
      5       6.2723      2.00000
      6       8.5226     -0.01178
      7       8.7815     -0.00002
      8      10.4571      0.00000
      9      10.9361      0.00000
     10      11.8447      0.00000
     11      12.5854      0.00000
     12      12.9665      0.00000

 k-point  12 :       0.4500    0.2500    0.0500
  band No.  band energies     occupation 
      1      -0.7168      2.00000
      2       0.1726      2.00000
      3       3.6702      2.00000
      4       4.5302      2.00000
      5       6.9363      2.00000
      6       7.7760      2.04227
      7       9.1968      0.00000
      8      10.0247      0.00000
      9      11.1298      0.00000
     10      11.9669      0.00000
     11      12.4212      0.00000
     12      13.2097      0.00000

 k-point  13 :       0.3500    0.3500    0.0500
  band No.  band energies     occupation 
      1      -0.8954      2.00000
      2       1.7591      2.00000
      3       1.7591      2.00000
      4       4.3627      2.00000
      5       6.7684      2.00000
      6       9.0346      0.00000
      7       9.2883      0.00000
      8       9.2883      0.00000
      9      11.5267      0.00000
     10      11.5267      0.00000
     11      11.8031      0.00000
     12      13.8933      0.00000

 k-point  14 :       0.4500    0.3500    0.0500
  band No.  band energies     occupation 
      1      -0.1823      2.00000
      2       0.7041      2.00000
      3       2.4599      2.00000
      4       3.3294      2.00000
      5       7.4412      2.00003
      6       8.2820     -0.01847
      7       9.7136      0.00000
      8       9.9613      0.00000
      9      10.5498      0.00000
     10      10.8003      0.00000
     11      12.2065      0.00000
     12      13.0297      0.00000

 k-point  15 :       0.4500    0.4500    0.0500
  band No.  band energies     occupation 
      1       0.5273      2.00000
      2       1.4096      2.00000
      3       1.4096      2.00000
      4       2.2863      2.00000
      5       8.1147      0.91323
      6       8.9552      0.00000
      7       8.9552      0.00000
      8       9.7950      0.00000
      9      10.3918      0.00000
     10      11.2264      0.00000
     11      11.2264      0.00000
     12      12.0562      0.00000

 k-point  16 :       0.1500    0.1500    0.1500
  band No.  band energies     occupation 
      1      -2.5134      2.00000
      2       3.6496      2.00000
      3       3.6496      2.00000
      4       3.6496      2.00000
      5       8.9518      0.00000
      6       8.9518      0.00000
      7       8.9518      0.00000
      8       9.6561      0.00000
      9       9.6561      0.00000
     10       9.6561      0.00000
     11      14.1544      0.00000
     12      14.1544      0.00000

 k-point  17 :       0.2500    0.1500    0.1500
  band No.  band energies     occupation 
      1      -2.1523      2.00000
      2       2.2792      2.00000
      3       3.9945      2.00000
      4       3.9945      2.00000
      5       8.2319      0.12798
      6       8.2319      0.12798
      7       9.3968      0.00000
      8       9.3968      0.00000
      9       9.8945      0.00000
     10      11.0462      0.00000
     11      13.4672      0.00000
     12      13.4672      0.00000

 k-point  18 :       0.3500    0.1500    0.1500
  band No.  band energies     occupation 
      1      -1.6122      2.00000
      2       1.0558      2.00000
      3       4.5089      2.00000
      4       4.5089      2.00000
      5       7.0786      2.00000
      6       7.0786      2.00000
      7       9.8720      0.00000
      8       9.8720      0.00000
      9      10.4192      0.00000
     10      12.4170      0.00000
     11      12.4170      0.00000
     12      12.9264      0.00000

 k-point  19 :       0.4500    0.1500    0.1500
  band No.  band energies     occupation 
      1      -0.8954      2.00000
      2      -0.0049      2.00000
      3       5.1814      2.00000
      4       5.1814      2.00000
      5       6.0775      2.00000
      6       6.0775      2.00000
      7      10.4798      0.00000
      8      10.4798      0.00000
      9      11.0940      0.00000
     10      11.5051      0.00000
     11      11.5051      0.00000
     12      11.9306      0.00000

 k-point  20 :       0.2500    0.2500    0.1500
  band No.  band energies     occupation 
      1      -1.7920      2.00000
      2       2.6281      2.00000
      3       2.6281      2.00000
      4       4.3372      2.00000
      5       6.9289      2.00000
      6       8.5938     -0.00293
      7       8.5938     -0.00293
      8       9.7202      0.00000
      9      11.3590      0.00000
     10      11.3590      0.00000
     11      12.7807      0.00000
     12      13.7950      0.00000

 k-point  21 :       0.3500    0.2500    0.1500
  band No.  band energies     occupation 
      1      -1.2534      2.00000
      2       1.4080      2.00000
      3       3.1501      2.00000
      4       4.8402      2.00000
      5       5.7605      2.00000
      6       7.4224      2.00002
      7       9.1060      0.00000
      8      10.2209      0.00000
      9      11.6239      0.00000
     10      11.8061      0.00000
     11      12.7882      0.00000
     12      13.4800      0.00000

 k-point  22 :       0.4500    0.2500    0.1500
  band No.  band energies     occupation 
      1      -0.5384      2.00000
      2       0.3499      2.00000
      3       3.8418      2.00000
      4       4.6901      2.00000
      5       5.5692      2.00000
      6       6.4083      2.00000
      7       9.7824      0.00000
      8      10.6226      0.00000
      9      10.8798      0.00000
     10      11.6557      0.00000
     11      12.6284      0.00000
     12      13.3796      0.00000

 k-point  23 :       0.3500    0.3500    0.1500
  band No.  band energies     occupation 
      1      -0.7167      2.00000
      2       1.9346      2.00000
      3       1.9346      2.00000
      4       4.5230      2.00000
      5       5.3984      2.00000
      6       7.9332      2.00609
      7       7.9332      2.00609
      8      10.4616      0.00000
      9      10.7282      0.00000
     10      13.1410      0.00000
     11      13.1410      0.00000
     12      14.0831      0.00000

 k-point  24 :       0.4500    0.3500    0.1500
  band No.  band energies     occupation 
      1      -0.0045      2.00000
      2       0.8808      2.00000
      3       2.6341      2.00000
      4       3.5017      2.00000
      5       6.0690      2.00000
      6       6.9185      2.00000
      7       8.6114     -0.00198
      8       9.4552      0.00000
      9      11.3944      0.00000
     10      12.2117      0.00000
     11      13.8365      0.00000
     12      14.6485      0.00000

 k-point  25 :       0.4500    0.4500    0.1500
  band No.  band energies     occupation 
      1       0.7043      2.00000
      2       1.5854      2.00000
      3       1.5854      2.00000
      4       2.4609      2.00000
      5       6.7494      2.00000
      6       7.5982      2.00201
      7       7.5982      2.00201
      8       8.4450     -0.03685
      9      12.0630      0.00000
     10      12.8817      0.00000
     11      12.8817      0.00000
     12      13.6974      0.00000

 k-point  26 :       0.2500    0.2500    0.2500
  band No.  band energies     occupation 
      1      -1.4326      2.00000
      2       2.9766      2.00000
      3       2.9766      2.00000
      4       2.9766      2.00000
      5       7.2738      2.00000
      6       7.2738      2.00000
      7       7.2738      2.00000
      8      11.4791      0.00000
      9      11.6989      0.00000
     10      11.6989      0.00000
     11      11.6989      0.00000
     12      15.0918      0.00000

 k-point  27 :       0.3500    0.2500    0.2500
  band No.  band energies     occupation 
      1      -0.8954      2.00000
      2       1.7593      2.00000
      3       3.4959      2.00000
      4       3.4959      2.00000
      5       6.0923      2.00000
      6       6.0923      2.00000
      7       7.7854      2.04659
      8      10.3166      0.00000
      9      12.1908      0.00000
     10      12.1908      0.00000
     11      13.8417      0.00000
     12      14.5916      0.00000

 k-point  28 :       0.4500    0.2500    0.2500
  band No.  band energies     occupation 
      1      -0.1822      2.00000
      2       0.7039      2.00000
      3       4.1762      2.00000
      4       4.1762      2.00000
      5       5.0789      2.00000
      6       5.0789      2.00000
      7       8.4645     -0.02884
      8       9.3096      0.00000
      9      12.8062      0.00000
     10      12.8062      0.00000
     11      13.7408      0.00000
     12      13.7408      0.00000

 k-point  29 :       0.3500    0.3500    0.2500
  band No.  band energies     occupation 
      1      -0.3601      2.00000
      2       2.2846      2.00000
      3       2.2846      2.00000
      4       4.0043      2.00000
      5       4.9114      2.00000
      6       6.6039      2.00000
      7       6.6039      2.00000
      8       9.1477      0.00000
      9      12.6944      0.00000
     10      14.3011      0.00000
     11      14.3011      0.00000
     12      15.0930      0.00000

 k-point  30 :       0.4500    0.3500    0.2500
  band No.  band energies     occupation 
      1       0.3504      2.00000
      2       1.2335      2.00000
      3       2.9814      2.00000
      4       3.8382      2.00000
      5       4.7346      2.00000
      6       5.5818      2.00000
      7       7.2859      2.00000
      8       8.1352      0.74295
      9      13.3452      0.00000
     10      14.1153      0.00000
     11      15.0232      0.00000
     12      15.6673      0.00000

 k-point  31 :       0.4500    0.4500    0.2500
  band No.  band energies     occupation 
      1       1.0574      2.00000
      2       1.9363      2.00000
      3       1.9363      2.00000
      4       2.8089      2.00000
      5       5.4110      2.00000
      6       6.2657      2.00000
      7       6.2657      2.00000
      8       7.1181      2.00000
      9      14.0016      0.00000
     10      14.7934      0.00000
     11      14.7934      0.00000
     12      15.5837      0.00000

 k-point  32 :       0.3500    0.3500    0.3500
  band No.  band energies     occupation 
      1       0.1732      2.00000
      2       2.8078      2.00000
      3       2.8078      2.00000
      4       2.8078      2.00000
      5       5.4158      2.00000
      6       5.4158      2.00000
      7       5.4158      2.00000
      8       7.9723      1.89091
      9      14.8139      0.00000
     10      14.8139      0.00000
     11      14.8139      0.00000
     12      16.4995      0.00000

 k-point  33 :       0.4500    0.3500    0.3500
  band No.  band energies     occupation 
      1       0.8811      2.00000
      2       1.7610      2.00000
      3       3.4940      2.00000
      4       3.4940      2.00000
      5       4.3946      2.00000
      6       4.3946      2.00000
      7       6.1003      2.00000
      8       6.9538      2.00000
      9      15.4253      0.00000
     10      15.4253      0.00000
     11      16.2009      0.00000
     12      16.2009      0.00000

 k-point  34 :       0.4500    0.4500    0.3500
  band No.  band energies     occupation 
      1       1.5855      2.00000
      2       2.4609      2.00000
      3       2.4609      2.00000
      4       3.3231      2.00000
      5       4.2215      2.00000
      6       5.0740      2.00000
      7       5.0740      2.00000
      8       5.9308      2.00000
      9      16.0712      0.00000
     10      16.7833      0.00000
     11      16.7833      0.00000
     12      17.5288      0.00000

 k-point  35 :       0.4500    0.4500    0.4500
  band No.  band energies     occupation 
      1       2.2859      2.00000
      2       3.1507      2.00000
      3       3.1507      2.00000
      4       3.1507      2.00000
      5       4.0490      2.00000
      6       4.0490      2.00000
      7       4.0490      2.00000
      8       4.9027      2.00000
      9      18.1619      0.00000
     10      18.1619      0.00000
     11      18.1622      0.00000
     12      18.3809      0.00000


--------------------------------------------------------------------------------------------------------


 soft charge-density along one line, spin component           1
         0         1         2         3         4         5         6         7         8         9
 total charge-density along one line
 
 pseudopotential strength for first ion, spin component:           1
  8.445  14.392   0.000   0.000   0.000   0.000   0.000   0.000
 14.392  24.529   0.000   0.000   0.000   0.000   0.000   0.000
  0.000   0.000   1.989   0.000   0.000   5.733   0.000   0.000
  0.000   0.000   0.000   1.989   0.000   0.000   5.733   0.000
  0.000   0.000   0.000   0.000   1.989   0.000   0.000   5.733
  0.000   0.000   5.733   0.000   0.000  16.440   0.000   0.000
  0.000   0.000   0.000   5.733   0.000   0.000  16.440   0.000
  0.000   0.000   0.000   0.000   5.733   0.000   0.000  16.440
 total augmentation occupancy for first ion, spin component:           1
  4.188  -1.152   0.000   0.000   0.000   0.000   0.000   0.000
 -1.152   0.365   0.000   0.000   0.000   0.000   0.000   0.000
  0.000   0.000   1.307   0.000   0.000  -0.115   0.000   0.000
  0.000   0.000   0.000   1.307   0.000   0.000  -0.115   0.000
  0.000   0.000   0.000   0.000   1.307   0.000   0.000  -0.115
  0.000   0.000  -0.115   0.000   0.000   0.011   0.000   0.000
  0.000   0.000   0.000  -0.115   0.000   0.000   0.011   0.000
  0.000   0.000   0.000   0.000  -0.115   0.000   0.000   0.011


------------------------ aborting loop because EDIFF is reached ----------------------------------------


    CHARGE:  cpu time    0.00: real time    0.01
    FORLOC:  cpu time    0.00: real time    0.00
    FORNL :  cpu time    0.03: real time    0.03
    STRESS:  cpu time    0.10: real time    0.10
    FORCOR:  cpu time    0.01: real time    0.01
    FORHAR:  cpu time    0.00: real time    0.00
    MIXING:  cpu time    0.00: real time    0.00

  FORCE on cell =-STRESS in cart. coord.  units (eV):
  Direction    XX          YY          ZZ          XY          YZ          ZX
  --------------------------------------------------------------------------------------
  Alpha Z    -0.81591    -0.81591    -0.81591
  Ewald     -98.08711   -98.08711   -98.08711     0.00000     0.00000     0.00000
  Hartree     0.13800     0.13800     0.13800     0.00000     0.00000     0.00000
  E(xc)     -34.30757   -34.30757   -34.30757     0.00000     0.00000     0.00000
  Local       1.35153     1.35153     1.35153     0.00000     0.00000     0.00000
  n-local    74.51769    75.21508    77.13028     0.38611     1.02747     0.54132
  augment    -3.90778    -3.90778    -3.90778     0.00000     0.00000     0.00000
  Kinetic    56.66227    59.57751    63.77859     1.15982    -8.25962    -2.27290
  Fock        0.00000     0.00000     0.00000     0.00000     0.00000     0.00000
  -------------------------------------------------------------------------------------
  Total      -0.00171    -0.00171    -0.00171     0.00000     0.00000     0.00000
  in kB      -0.04167    -0.04167    -0.04167     0.00000     0.00000     0.00000
  external pressure =       -0.04 kB  Pullay stress =        0.00 kB


 VOLUME and BASIS-vectors are now :
 -----------------------------------------------------------------------------
  energy-cutoff  :      240.30
  volume of cell :       65.87
      direct lattice vectors                 reciprocal lattice vectors
     4.038516243  0.000000000  0.000000000     0.247615693  0.000000000  0.000000000
     0.000000000  4.038516243  0.000000000     0.000000000  0.247615693  0.000000000
     0.000000000  0.000000000  4.038516243     0.000000000  0.000000000  0.247615693

  length of vectors
     4.038516243  4.038516243  4.038516243     0.247615693  0.247615693  0.247615693


 FORCES acting on ions
    electron-ion (+dipol)            ewald-force                    non-local-force                 convergence-correction
 -----------------------------------------------------------------------------------------------
   -.386E-14 0.237E-14 0.216E-15   0.969E-15 -.351E-15 -.757E-15   -.103E-24 -.516E-25 0.194E-24   -.106E-17 -.310E-16 0.796E-17
   -.346E-14 -.232E-14 -.285E-14   0.880E-15 0.380E-15 0.310E-15   0.528E-25 0.796E-25 0.103E-24   0.437E-18 0.296E-16 -.642E-17
   -.527E-14 -.103E-14 -.346E-13   -.102E-14 -.270E-15 0.319E-15   -.104E-24 0.131E-24 0.103E-24   -.519E-18 -.206E-16 -.902E-17
   -.779E-14 -.340E-14 0.115E-13   -.111E-14 0.461E-15 0.434E-16   -.207E-24 0.516E-24 -.310E-24   -.456E-17 0.241E-16 0.630E-17
 -----------------------------------------------------------------------------------------------
   -.204E-13 -.437E-14 -.258E-13   -.279E-15 0.220E-15 -.852E-16   -.361E-24 0.675E-24 0.905E-25   -.570E-17 0.211E-17 -.118E-17
 
 
 POSITION                                       TOTAL-FORCE (eV/Angst)
 -----------------------------------------------------------------------------------
      0.00000      0.00000      0.00000         0.000000      0.000000      0.000000
      0.00000      2.01926      2.01926         0.000000      0.000000      0.000000
      2.01926      0.00000      2.01926         0.000000      0.000000      0.000000
      2.01926      2.01926      0.00000         0.000000      0.000000      0.000000
 -----------------------------------------------------------------------------------
    total drift:                                0.000000      0.000000      0.000000


--------------------------------------------------------------------------------------------------------



  FREE ENERGIE OF THE ION-ELECTRON SYSTEM (eV)
  ---------------------------------------------------
  free  energy   TOTEN  =       -14.952228 eV

  energy  without entropy=      -14.951573  energy(sigma->0) =      -14.952010
 
 d Force = 0.0000000E+00[ 0.000E+00, 0.000E+00]  d Energy = 0.4509695E-04-0.451E-04
 d Force = 0.0000000E+00[ 0.000E+00, 0.000E+00]  d Ewald  = 0.1650829E+00-0.165E+00


--------------------------------------------------------------------------------------------------------


    POTLOK:  cpu time    0.01: real time    0.01


--------------------------------------------------------------------------------------------------------




--------------------------------------------------------------------------------------------------------


  
 reached required accuracy - stopping structural energy minimisation
     LOOP+:  cpu time    0.51: real time    0.54
    4ORBIT:  cpu time    0.00: real time    0.00

 total amount of memory used by VASP on root node    33207. kBytes
========================================================================

   base      :      30000. kBytes
   nonl-proj :       1308. kBytes
   fftplans  :        302. kBytes
   grid      :        577. kBytes
   one-center:         12. kBytes
   wavefun   :       1008. kBytes
 
  
  
 General timing and accounting informations for this job:
 ========================================================
  
                  Total CPU time used (sec):        2.770
                            User time (sec):        2.740
                          System time (sec):        0.030
                         Elapsed time (sec):        2.926
  
                   Maximum memory used (kb):       23092.
                   Average memory used (kb):           0.
  
                          Minor page faults:         6007
                          Major page faults:            0
                 Voluntary context switches:          414
