 vasp.5.2.12 11Nov11 complex                                                    
  
 executed on             LinuxIFC date 2014.05.30  10:21:19
 running on    4 nodes
 distr:  one band on    1 nodes,    4 groups


--------------------------------------------------------------------------------------------------------


 INCAR:
 POTCAR:    PAW_PBE Cu 22Jun2005                  
 POTCAR:    PAW_PBE Al 04Jan2001                  
 POTCAR:    PAW_PBE Cu 22Jun2005                  
   VRHFIN =Cu: d10 p1                                                           
   LEXCH  = PE                                                                  
   EATOM  =  1390.9808 eV,  102.2342 Ry                                         
                                                                                
   TITEL  = PAW_PBE Cu 22Jun2005                                                
   LULTRA =        F    use ultrasoft PP ?                                      
   IUNSCR =        1    unscreen: 0-lin 1-nonlin 2-no                           
   RPACOR =    2.000    partial core radius                                     
   POMASS =   63.546; ZVAL   =   11.000    mass and valenz                      
   RCORE  =    2.300    outmost cutoff radius                                   
   RWIGS  =    2.200; RWIGS  =    1.164    wigner-seitz radius (au A)           
   ENMAX  =  295.446; ENMIN  =  221.585 eV                                      
   ICORE  =        3    local potential                                         
   LCOR   =        T    correct aug charges                                     
   LPAW   =        T    paw PP                                                  
   EAUG   =  586.980                                                            
   DEXC   =    0.000                                                            
   RMAX   =    2.344    core radius for proj-oper                               
   RAUG   =    1.300    factor for augmentation sphere                          
   RDEP   =    2.302    radius for radial grids                                 
   RDEPT  =    1.771    core radius for aug-charge                              
                                                                                
   Atomic configuration                                                         
    9 entries                                                                   
     n  l   j            E        occ.                                          
     1  0  0.50     -8850.2468   2.0000                                         
     2  0  0.50     -1062.3498   2.0000                                         
     2  1  1.50      -916.8226   6.0000                                         
     3  0  0.50      -114.6929   2.0000                                         
     3  1  1.50       -72.1325   6.0000                                         
     3  2  2.50        -5.0394  10.0000                                         
     4  0  0.50        -4.6097   1.0000                                         
     4  1  0.50        -4.0817   0.0000                                         
     4  3  2.50        -1.3606   0.0000                                         
   Description                                                                  
     l       E           TYP  RCUT    TYP  RCUT                                 
     2     -5.0393973     23  2.200                                             
     2     10.8846608     23  2.200                                             
     0     -4.6097109     23  2.200                                             
     0      8.2520465     23  2.200                                             
     1     -2.7211652     23  2.200                                             
     1     21.7055443     23  2.200                                             
     3      2.7211652     23  2.300                                             
  local pseudopotential read in
  partial core-charges read in
  partial kinetic energy density read in
  atomic valenz-charges read in
  non local Contribution for L=           2  read in
    real space projection operators read in
  non local Contribution for L=           2  read in
    real space projection operators read in
  non local Contribution for L=           0  read in
    real space projection operators read in
  non local Contribution for L=           0  read in
    real space projection operators read in
  non local Contribution for L=           1  read in
    real space projection operators read in
  non local Contribution for L=           1  read in
    real space projection operators read in
    PAW grid and wavefunctions read in
 
   number of l-projection  operators is LMAX  =           6
   number of lm-projection operators is LMMAX =          18
 
 POTCAR:    PAW_PBE Al 04Jan2001                  
   VRHFIN =Al: s2p1                                                             
   LEXCH  = PE                                                                  
   EATOM  =    53.5387 eV,    3.9350 Ry                                         
                                                                                
   TITEL  = PAW_PBE Al 04Jan2001                                                
   LULTRA =        F    use ultrasoft PP ?                                      
   IUNSCR =        1    unscreen: 0-lin 1-nonlin 2-no                           
   RPACOR =    1.500    partial core radius                                     
   POMASS =   26.981; ZVAL   =    3.000    mass and valenz                      
   RCORE  =    1.900    outmost cutoff radius                                   
   RWIGS  =    2.650; RWIGS  =    1.402    wigner-seitz radius (au A)           
   ENMAX  =  240.300; ENMIN  =  180.225 eV                                      
   ICORE  =        2    local potential                                         
   LCOR   =        T    correct aug charges                                     
   LPAW   =        T    paw PP                                                  
   EAUG   =  291.052                                                            
   DEXC   =    0.000                                                            
   RMAX   =    1.939    core radius for proj-oper                               
   RAUG   =    1.300    factor for augmentation sphere                          
   RDEP   =    1.966    radius for radial grids                                 
   RDEPT  =    1.856    core radius for aug-charge                              
                                                                                
   Atomic configuration                                                         
    6 entries                                                                   
     n  l   j            E        occ.                                          
     1  0  0.50     -1511.1048   2.0000                                         
     2  0  0.50      -108.1629   2.0000                                         
     2  1  1.50       -69.6402   6.0000                                         
     3  0  0.50        -7.7528   2.0000                                         
     3  1  1.50        -2.7121   1.0000                                         
     3  2  2.50        -2.7212   0.0000                                         
   Description                                                                  
     l       E           TYP  RCUT    TYP  RCUT                                 
     0     -7.7528455     23  1.900                                             
     0     -3.3096929     23  1.900                                             
     1     -2.7120682     23  1.900                                             
     1     13.6058260     23  1.900                                             
     2     -2.7211652      7  1.900                                             
  local pseudopotential read in
  partial core-charges read in
  partial kinetic energy density read in
  atomic valenz-charges read in
  non local Contribution for L=           0  read in
    real space projection operators read in
  non local Contribution for L=           0  read in
    real space projection operators read in
  non local Contribution for L=           1  read in
    real space projection operators read in
  non local Contribution for L=           1  read in
    real space projection operators read in
    PAW grid and wavefunctions read in
 
   number of l-projection  operators is LMAX  =           4
   number of lm-projection operators is LMMAX =           8
 
 Optimization of the real space projectors (new method)

 maximal supplied QI-value         = 16.25
 optimisation between [QCUT,QGAM] = [  8.78, 17.55] = [ 21.57, 86.27] Ry 
 Optimized for a Real-space Cutoff    1.61 Angstroem

   l    n(q)    QCUT    max X(q) W(low)/X(q) W(high)/X(q)  e(spline) 
   2      7     8.776     4.610    0.19E-03    0.29E-03    0.29E-06
   2      7     8.776     8.522    0.28E-03    0.56E-03    0.43E-06
   0      8     8.776    51.609    0.51E-04    0.19E-03    0.66E-07
   0      8     8.776    27.747    0.45E-04    0.18E-03    0.64E-07
   1      8     8.776    20.408    0.41E-03    0.31E-03    0.23E-06
   1      8     8.776    13.425    0.36E-03    0.28E-03    0.21E-06
 Optimization of the real space projectors (new method)

 maximal supplied QI-value         = 19.84
 optimisation between [QCUT,QGAM] = [  8.73, 17.46] = [ 21.34, 85.38] Ry 
 Optimized for a Real-space Cutoff    1.43 Angstroem

   l    n(q)    QCUT    max X(q) W(low)/X(q) W(high)/X(q)  e(spline) 
   0      7     8.731   176.870    0.24E-03    0.42E-04    0.12E-06
   0      7     8.731   105.762    0.23E-03    0.40E-04    0.11E-06
   1      7     8.731    55.370    0.23E-03    0.67E-03    0.12E-06
   1      7     8.731    20.208    0.21E-03    0.61E-03    0.12E-06
  PAW_PBE Cu 22Jun2005                  :
 energy of atom  1       EATOM=-1390.9808
 kinetic energy error for atom=    0.0452 (will be added to EATOM!!)
  PAW_PBE Al 04Jan2001                  :
 energy of atom  2       EATOM=  -53.5387
 kinetic energy error for atom=    0.0012 (will be added to EATOM!!)
 
 
 POSCAR: XYZ: Cu8Al16                            
  positions in direct lattice
  velocities in cartesian coordinates
 exchange correlation table for  LEXCH =        8
   RHO(1)=    0.500       N(1)  =     2000
   RHO(2)=  100.500       N(2)  =     4000
 


--------------------------------------------------------------------------------------------------------


 ion  position               nearest neighbor table
   1  0.250  0.250  0.250-   7 2.43   7 2.43  12 2.58  13 2.58  16 2.58   9 2.58  20 2.58  22 2.58
                            23 2.58  17 2.58
   2  0.750  0.750  0.250-   8 2.43   8 2.43  11 2.58  14 2.58  15 2.58  10 2.58  20 2.58  22 2.58
                            23 2.58  17 2.58
   3  0.250  0.750  0.750-   5 2.43   5 2.43  11 2.58  14 2.58  15 2.58  10 2.58  19 2.58  21 2.58
                            24 2.58  18 2.58
   4  0.750  0.250  0.750-   6 2.43   6 2.43  12 2.58  13 2.58  16 2.58   9 2.58  19 2.58  21 2.58
                            24 2.58  18 2.58
   5  0.750  0.750  0.750-   3 2.43   3 2.43  11 2.58  14 2.58  15 2.58  10 2.58  19 2.58  21 2.58
                            24 2.58  18 2.58
   6  0.250  0.250  0.750-   4 2.43   4 2.43  12 2.58  13 2.58  16 2.58   9 2.58  19 2.58  21 2.58
                            24 2.58  18 2.58
   7  0.750  0.250  0.250-   1 2.43   1 2.43  12 2.58  13 2.58  16 2.58   9 2.58  20 2.58  22 2.58
                            23 2.58  17 2.58
   8  0.250  0.750  0.250-   2 2.43   2 2.43  11 2.58  14 2.58  15 2.58  10 2.58  20 2.58  22 2.58
                            23 2.58  17 2.58
   9  0.000  0.342  0.000-   1 2.58   4 2.58   6 2.58   7 2.58  10 2.70  16 2.89  16 2.89  24 3.09
                            23 3.09  23 3.09  24 3.09  20 3.22  19 3.22  18 3.22  17 3.22
  10  0.000  0.658  0.000-   2 2.58   3 2.58   5 2.58   8 2.58   9 2.70  15 2.89  15 2.89  24 3.09
                            23 3.09  23 3.09  24 3.09  20 3.22  19 3.22  18 3.22  17 3.22
  11  0.000  0.842  0.500-   2 2.58   3 2.58   5 2.58   8 2.58  12 2.70  14 2.89  14 2.89  22 3.09
                            21 3.09  21 3.09  22 3.09  18 3.22  17 3.22  20 3.22  19 3.22
  12  0.000  0.158  0.500-   1 2.58   4 2.58   6 2.58   7 2.58  11 2.70  13 2.89  13 2.89  22 3.09
                            21 3.09  21 3.09  22 3.09  18 3.22  17 3.22  20 3.22  19 3.22
  13  0.500  0.342  0.500-   1 2.58   4 2.58   6 2.58   7 2.58  14 2.70  12 2.89  12 2.89  20 3.09
                            19 3.09  19 3.09  20 3.09  24 3.22  23 3.22  22 3.22  21 3.22
  14  0.500  0.658  0.500-   2 2.58   3 2.58   5 2.58   8 2.58  13 2.70  11 2.89  11 2.89  20 3.09
                            19 3.09  19 3.09  20 3.09  24 3.22  23 3.22  22 3.22  21 3.22
  15  0.500  0.842  0.000-   2 2.58   3 2.58   5 2.58   8 2.58  16 2.70  10 2.89  10 2.89  18 3.09
                            17 3.09  17 3.09  18 3.09  22 3.22  21 3.22  24 3.22  23 3.22
  16  0.500  0.158  0.000-   1 2.58   4 2.58   6 2.58   7 2.58  15 2.70   9 2.89   9 2.89  18 3.09
                            17 3.09  17 3.09  18 3.09  22 3.22  21 3.22  24 3.22  23 3.22
  17  0.000  0.000  0.158-   1 2.58   2 2.58   7 2.58   8 2.58  18 2.70  22 2.89  22 2.89  16 3.09
                            15 3.09  16 3.09  15 3.09  12 3.22  11 3.22  10 3.22   9 3.22
  18  0.000  0.000  0.842-   3 2.58   4 2.58   5 2.58   6 2.58  17 2.70  21 2.89  21 2.89  16 3.09
                            15 3.09  16 3.09  15 3.09  12 3.22  11 3.22  10 3.22   9 3.22
  19  0.000  0.500  0.658-   3 2.58   4 2.58   5 2.58   6 2.58  20 2.70  24 2.89  24 2.89  14 3.09
                            13 3.09  14 3.09  13 3.09  10 3.22   9 3.22  12 3.22  11 3.22
  20  0.000  0.500  0.342-   1 2.58   2 2.58   7 2.58   8 2.58  19 2.70  23 2.89  23 2.89  14 3.09
                            13 3.09  14 3.09  13 3.09  10 3.22   9 3.22  12 3.22  11 3.22
  21  0.500  0.000  0.658-   3 2.58   4 2.58   5 2.58   6 2.58  22 2.70  18 2.89  18 2.89  12 3.09
                            11 3.09  12 3.09  11 3.09  16 3.22  15 3.22  14 3.22  13 3.22
  22  0.500  0.000  0.342-   1 2.58   2 2.58   7 2.58   8 2.58  21 2.70  17 2.89  17 2.89  12 3.09
                            11 3.09  12 3.09  11 3.09  16 3.22  15 3.22  14 3.22  13 3.22
  23  0.500  0.500  0.158-   1 2.58   2 2.58   7 2.58   8 2.58  24 2.70  20 2.89  20 2.89  10 3.09
                             9 3.09  10 3.09   9 3.09  14 3.22  13 3.22  16 3.22  15 3.22
  24  0.500  0.500  0.842-   3 2.58   4 2.58   5 2.58   6 2.58  23 2.70  19 2.89  19 2.89  10 3.09
                             9 3.09  10 3.09   9 3.09  14 3.22  13 3.22  16 3.22  15 3.22
 
  LATTYP: Found a simple orthorhombic cell.
 ALAT       =     4.8583594097
 B/A-ratio  =     1.7584350602
 C/A-ratio  =     1.7585468623
  
  Lattice vectors:
  
 A1 = (  -4.8583594097,   0.0000000000,   0.0000000000)
 A2 = (   0.0000000000,   0.0000000000,  -8.5431095208)
 A3 = (   0.0000000000,  -8.5436526956,   0.0000000000)
 Subroutine PRICEL returns following result:
 
  LATTYP: Found a face centered orthorhombic cell.
 ALAT       =     4.8583594097
 B/A-ratio  =     1.7584350602
 C/A-ratio  =     1.7585468623
  
  Lattice vectors:
  
 A1 = (   0.0000000000,   4.2718263478,   4.2715547604)
 A2 = (  -2.4291797048,   4.2718263478,   0.0000000000)
 A3 = (  -2.4291797048,   0.0000000000,   4.2715547604)
 
   4 primitive cells build up your supercell.
 

Analysis of symmetry for initial positions (statically):

 Routine SETGRP: Setting up the symmetry group for a 
 simple orthorhombic supercell.


 Subroutine GETGRP returns: Found  8 space group operations
 (whereof  8 operations were pure point group operations)
 out of a pool of  8 trial point group operations.


The static configuration has the point symmetry D_2h.

Analysis of symmetry for dynamics (positions and initial velocities):

 Subroutine DYNSYM returns: Found  8 space group operations
 (whereof  8 operations were pure point group operations)
 out of a pool of  8 trial space group operations
 (whereof  8 operations were pure point group operations)
 and found also     4 'primitive' translations


The dynamic configuration has the point symmetry D_2h.
 
 
 KPOINTS: Automatic mesh                          

Automatic generation of k-mesh.
 
 Subroutine IBZKPT returns following result:
 ===========================================
 
 Found     45 irreducible k-points:
 
 Following reciprocal coordinates:
            Coordinates               Weight
  0.000000  0.000000  0.000000      1.000000
  0.111111  0.000000  0.000000      2.000000
  0.222222  0.000000  0.000000      2.000000
  0.333333  0.000000  0.000000      2.000000
  0.444444  0.000000  0.000000      2.000000
  0.000000  0.200000  0.000000      2.000000
  0.111111  0.200000  0.000000      4.000000
  0.222222  0.200000  0.000000      4.000000
  0.333333  0.200000  0.000000      4.000000
  0.444444  0.200000  0.000000      4.000000
  0.000000  0.400000  0.000000      2.000000
  0.111111  0.400000  0.000000      4.000000
  0.222222  0.400000  0.000000      4.000000
  0.333333  0.400000  0.000000      4.000000
  0.444444  0.400000  0.000000      4.000000
  0.000000  0.000000  0.200000      2.000000
  0.111111  0.000000  0.200000      4.000000
  0.222222  0.000000  0.200000      4.000000
  0.333333  0.000000  0.200000      4.000000
  0.444444  0.000000  0.200000      4.000000
  0.000000  0.200000  0.200000      4.000000
  0.111111  0.200000  0.200000      8.000000
  0.222222  0.200000  0.200000      8.000000
  0.333333  0.200000  0.200000      8.000000
  0.444444  0.200000  0.200000      8.000000
  0.000000  0.400000  0.200000      4.000000
  0.111111  0.400000  0.200000      8.000000
  0.222222  0.400000  0.200000      8.000000
  0.333333  0.400000  0.200000      8.000000
  0.444444  0.400000  0.200000      8.000000
  0.000000  0.000000  0.400000      2.000000
  0.111111  0.000000  0.400000      4.000000
  0.222222  0.000000  0.400000      4.000000
  0.333333  0.000000  0.400000      4.000000
  0.444444  0.000000  0.400000      4.000000
  0.000000  0.200000  0.400000      4.000000
  0.111111  0.200000  0.400000      8.000000
  0.222222  0.200000  0.400000      8.000000
  0.333333  0.200000  0.400000      8.000000
  0.444444  0.200000  0.400000      8.000000
  0.000000  0.400000  0.400000      4.000000
  0.111111  0.400000  0.400000      8.000000
  0.222222  0.400000  0.400000      8.000000
  0.333333  0.400000  0.400000      8.000000
  0.444444  0.400000  0.400000      8.000000
 
 Following cartesian coordinates:
            Coordinates               Weight
  0.000000  0.000000  0.000000      1.000000
  0.022870  0.000000  0.000000      2.000000
  0.045740  0.000000  0.000000      2.000000
  0.068610  0.000000  0.000000      2.000000
  0.091480  0.000000  0.000000      2.000000
  0.000000  0.023409  0.000000      2.000000
  0.022870  0.023409  0.000000      4.000000
  0.045740  0.023409  0.000000      4.000000
  0.068610  0.023409  0.000000      4.000000
  0.091480  0.023409  0.000000      4.000000
  0.000000  0.046818  0.000000      2.000000
  0.022870  0.046818  0.000000      4.000000
  0.045740  0.046818  0.000000      4.000000
  0.068610  0.046818  0.000000      4.000000
  0.091480  0.046818  0.000000      4.000000
  0.000000  0.000000  0.023411      2.000000
  0.022870  0.000000  0.023411      4.000000
  0.045740  0.000000  0.023411      4.000000
  0.068610  0.000000  0.023411      4.000000
  0.091480  0.000000  0.023411      4.000000
  0.000000  0.023409  0.023411      4.000000
  0.022870  0.023409  0.023411      8.000000
  0.045740  0.023409  0.023411      8.000000
  0.068610  0.023409  0.023411      8.000000
  0.091480  0.023409  0.023411      8.000000
  0.000000  0.046818  0.023411      4.000000
  0.022870  0.046818  0.023411      8.000000
  0.045740  0.046818  0.023411      8.000000
  0.068610  0.046818  0.023411      8.000000
  0.091480  0.046818  0.023411      8.000000
  0.000000  0.000000  0.046821      2.000000
  0.022870  0.000000  0.046821      4.000000
  0.045740  0.000000  0.046821      4.000000
  0.068610  0.000000  0.046821      4.000000
  0.091480  0.000000  0.046821      4.000000
  0.000000  0.023409  0.046821      4.000000
  0.022870  0.023409  0.046821      8.000000
  0.045740  0.023409  0.046821      8.000000
  0.068610  0.023409  0.046821      8.000000
  0.091480  0.023409  0.046821      8.000000
  0.000000  0.046818  0.046821      4.000000
  0.022870  0.046818  0.046821      8.000000
  0.045740  0.046818  0.046821      8.000000
  0.068610  0.046818  0.046821      8.000000
  0.091480  0.046818  0.046821      8.000000
 


--------------------------------------------------------------------------------------------------------




 Dimension of arrays:
   k-points           NKPTS =     45   k-points in BZ     NKDIM =     45   number of bands    NBANDS=     84
   number of dos      NEDOS =    301   number of ions     NIONS =     24
   non local maximal  LDIM  =      6   non local SUM 2l+1 LMDIM =     18
   total plane-waves  NPLWV =  25920
   max r-space proj   IRMAX =   1319   max aug-charges    IRDMAX=   3044
   dimension x,y,z NGX =    20 NGY =   36 NGZ =   36
   dimension x,y,z NGXF=    40 NGYF=   72 NGZF=   72
   support grid    NGXF=    40 NGYF=   72 NGZF=   72
   ions per type =               8  16
 NGX,Y,Z   is equivalent  to a cutoff of   6.84,  7.01,  7.01 a.u.
 NGXF,Y,Z  is equivalent  to a cutoff of  13.69, 14.01, 14.01 a.u.


 I would recommend the setting:
   dimension x,y,z NGX =    20 NGY =   36 NGZ =   36
 SYSTEM =  Al16Cu8                                 
 POSCAR =  XYZ: Cu8Al16                            

 Startparameter for this run:
   NWRITE =      2    write-flag & timer
   PREC   = normal    normal or accurate (medium, high low for compatibility)
   ISTART =      0    job   : 0-new  1-cont  2-samecut
   ICHARG =      2    charge: 1-file 2-atom 10-const
   ISPIN  =      1    spin polarized calculation?
   LNONCOLLINEAR =      F non collinear calculations
   LSORBIT =      F    spin-orbit coupling
   INIWAV =      1    electr: 0-lowe 1-rand  2-diag
   LASPH  =      F    aspherical Exc in radial PAW
   METAGGA=      F    non-selfconsistent MetaGGA calc.

 Electronic Relaxation 1
   ENCUT  =  295.4 eV  21.71 Ry    4.66 a.u.   6.81 11.97 11.97*2*pi/ulx,y,z
   ENINI  =  295.4     initial cutoff
   ENAUG  =  587.0 eV  augmentation charge cutoff
   NELM   =     40;   NELMIN=  2; NELMDL=  0     # of ELM steps 
   EDIFF  = 0.1E-05   stopping-criterion for ELM
   LREAL  =      T    real-space projection
   NLSPLINE    = F    spline interpolate recip. space projectors
   LCOMPAT=      F    compatible to vasp.4.4
   GGA_COMPAT  = T    GGA compatible to vasp.4.4-vasp.4.6
   LMAXPAW     = -100 max onsite density
   LMAXMIX     =    2 max onsite mixed and CHGCAR
   VOSKOWN=      0    Vosko Wilk Nusair interpolation
   ROPT   =   -0.00050  -0.00050
 Ionic relaxation
   EDIFFG = 0.1E-04   stopping-criterion for IOM
   NSW    =     10    number of steps for IOM
   NBLOCK =      1;   KBLOCK =     10    inner block; outer block 
   IBRION =      2    ionic relax: 0-MD 1-quasi-New 2-CG
   NFREE  =      1    steps in history (QN), initial steepest desc. (CG)
   ISIF   =      3    stress and relaxation
   IWAVPR =     11    prediction:  0-non 1-charg 2-wave 3-comb
   ISYM   =      2    0-nonsym 1-usesym 2-fastsym
   LCORR  =      T    Harris-Foulkes like correction to forces

   POTIM  = 0.2500    time-step for ionic-motion
   TEIN   =    0.0    initial temperature
   TEBEG  =    0.0;   TEEND  =   0.0 temperature during run
   SMASS  =  -3.00    Nose mass-parameter (am)
   estimated Nose-frequenzy (Omega)   =  0.10E-29 period in steps =****** mass=  -0.539E-27a.u.
   SCALEE = 1.0000    scale energy and forces
   NPACO  =    256;   APACO  = 16.0  distance and # of slots for P.C.
   PSTRESS=    0.0 pullay stress

  Mass of Ions in am
   POMASS =  63.55 26.98
  Ionic Valenz
   ZVAL   =  11.00  3.00
  Atomic Wigner-Seitz radii
   RWIGS  =  -1.00 -1.00
  virtual crystal weights 
   VCA    =   1.00  1.00
   NELECT =     136.0000    total number of electrons
   NUPDOWN=      -1.0000    fix difference up-down

 DOS related values:
   EMIN   =  10.00;   EMAX   =-10.00  energy-range for DOS
   EFERMI =   0.00
   ISMEAR =     1;   SIGMA  =   0.20  broadening in eV -4-tet -1-fermi 0-gaus

 Electronic relaxation 2 (details)
   IALGO  =     68    algorithm
   LDIAG  =      T    sub-space diagonalisation (order eigenvalues)
   LSUBROT=      T    optimize rotation matrix (better conditioning)
   TURBO    =      0    0=normal 1=particle mesh
   IRESTART =      0    0=no restart 2=restart with 2 vectors
   NREBOOT  =      0    no. of reboots
   NMIN     =      0    reboot dimension
   EREF     =   0.00    reference energy to select bands
   IMIX   =      4    mixing-type and parameters
     AMIX     =   0.40;   BMIX     =  1.00
     AMIX_MAG =   1.60;   BMIX_MAG =  1.00
     AMIN     =   0.10
     WC   =   100.;   INIMIX=   1;  MIXPRE=   1

 Intra band minimization:
   WEIMIN = 0.0010     energy-eigenvalue tresh-hold
   EBREAK =  0.30E-08  absolut break condition
   DEPER  =   0.30     relativ break condition  

   TIME   =   0.40     timestep for ELM

  volume/ion in A,a.u.               =      14.78        99.71
  Fermi-wavevector in a.u.,A,eV,Ry     =   1.189428  2.247693 19.248684  1.414738
  Thomas-Fermi vector in A             =   2.325535
 
 Write flags
   LWAVE  =      F    write WAVECAR
   LCHARG =      F    write CHGCAR
   LVTOT  =      F    write LOCPOT, total local potential
   LVHAR  =      F    write LOCPOT, Hartree potential only
   LELF   =      F    write electronic localiz. function (ELF)
   LORBIT =      0    0 simple, 1 ext, 2 COOP (PROOUT)


 Dipole corrections
   LMONO  =      F    monopole corrections only (constant potential shift)
   LDIPOL =      F    correct potential (dipole corrections)
   IDIPOL =      0    1-x, 2-y, 3-z, 4-all directions 
   EPSILON=  1.0000000 bulk dielectric constant

 Exchange correlation treatment:
   GGA     =    --    GGA type
   LEXCH   =     8    internal setting for exchange type
   VOSKOWN=      0    Vosko Wilk Nusair interpolation
   LHFCALC =     F    Hartree Fock is set to
   LHFONE  =     F    Hartree Fock one center treatment
   AEXX    =    0.0000 exact exchange contribution

 Linear response parameters
   LEPSILON=     F    determine dielectric tensor
   LRPA    =     F    only Hartree local field effects (RPA)
   LNABLA  =     F    use nabla operator in PAW spheres
   LVEL    =     F    velocity operator in full k-point grid
   LINTERFAST=   F  fast interpolation
   KINTER  =     0    interpolate to denser k-point grid
   CSHIFT  =0.1000    complex shift for real part using Kramers Kronig
   OMEGAMAX=  -1.0    maximum frequency
   RTIME   =    0.100 relaxation time in fs

 Orbital magnetization related:
   ORBITALMAG=     F  switch on orbital magnetization
   LCHIMAG   =     F  perturbation theory with respect to B field
   DQ        =  0.001000  dq finite difference perturbation B field



--------------------------------------------------------------------------------------------------------


 conjugate gradient relaxation of ions
 charge density and potential will be updated during run
 non-spin polarized calculation
 RMM-DIIS sequential band-by-band and
  variant of blocked Davidson during initial phase
 perform sub-space diagonalisation
    before iterative eigenvector-optimisation
 modified Broyden-mixing scheme, WC =      100.0
 initial mixing is a Kerker type mixing with AMIX =  0.4000 and BMIX =      1.0000
 Hartree-type preconditioning will be used
 using additional bands           16
 real space projection scheme for non local part
 use partial core corrections
 calculate Harris-corrections to forces 
   (improved forces if not selfconsistent)
 use gradient corrections 
 use of overlap-Matrix (Vanderbilt PP)
 Methfessel and Paxton  Order N= 1 SIGMA  =   0.20


--------------------------------------------------------------------------------------------------------


  energy-cutoff  :      295.45
  volume of cell :      354.61
      direct lattice vectors                 reciprocal lattice vectors
     4.858359410  0.000000000  0.000000000     0.205830799  0.000000000  0.000000000
     0.000000000  8.543652696  0.000000000     0.000000000  0.117045956  0.000000000
     0.000000000  0.000000000  8.543109521     0.000000000  0.000000000  0.117053398

  length of vectors
     4.858359410  8.543652696  8.543109521     0.205830799  0.117045956  0.117053398


 
 k-points in units of 2pi/SCALE and weight: Automatic mesh                          
   0.00000000  0.00000000  0.00000000       0.004
   0.02287009  0.00000000  0.00000000       0.009
   0.04574018  0.00000000  0.00000000       0.009
   0.06861027  0.00000000  0.00000000       0.009
   0.09148036  0.00000000  0.00000000       0.009
   0.00000000  0.02340919  0.00000000       0.009
   0.02287009  0.02340919  0.00000000       0.018
   0.04574018  0.02340919  0.00000000       0.018
   0.06861027  0.02340919  0.00000000       0.018
   0.09148036  0.02340919  0.00000000       0.018
   0.00000000  0.04681838  0.00000000       0.009
   0.02287009  0.04681838  0.00000000       0.018
   0.04574018  0.04681838  0.00000000       0.018
   0.06861027  0.04681838  0.00000000       0.018
   0.09148036  0.04681838  0.00000000       0.018
   0.00000000  0.00000000  0.02341068       0.009
   0.02287009  0.00000000  0.02341068       0.018
   0.04574018  0.00000000  0.02341068       0.018
   0.06861027  0.00000000  0.02341068       0.018
   0.09148036  0.00000000  0.02341068       0.018
   0.00000000  0.02340919  0.02341068       0.018
   0.02287009  0.02340919  0.02341068       0.036
   0.04574018  0.02340919  0.02341068       0.036
   0.06861027  0.02340919  0.02341068       0.036
   0.09148036  0.02340919  0.02341068       0.036
   0.00000000  0.04681838  0.02341068       0.018
   0.02287009  0.04681838  0.02341068       0.036
   0.04574018  0.04681838  0.02341068       0.036
   0.06861027  0.04681838  0.02341068       0.036
   0.09148036  0.04681838  0.02341068       0.036
   0.00000000  0.00000000  0.04682136       0.009
   0.02287009  0.00000000  0.04682136       0.018
   0.04574018  0.00000000  0.04682136       0.018
   0.06861027  0.00000000  0.04682136       0.018
   0.09148036  0.00000000  0.04682136       0.018
   0.00000000  0.02340919  0.04682136       0.018
   0.02287009  0.02340919  0.04682136       0.036
   0.04574018  0.02340919  0.04682136       0.036
   0.06861027  0.02340919  0.04682136       0.036
   0.09148036  0.02340919  0.04682136       0.036
   0.00000000  0.04681838  0.04682136       0.018
   0.02287009  0.04681838  0.04682136       0.036
   0.04574018  0.04681838  0.04682136       0.036
   0.06861027  0.04681838  0.04682136       0.036
   0.09148036  0.04681838  0.04682136       0.036
 
 k-points in reciprocal lattice and weights: Automatic mesh                          
   0.00000000  0.00000000  0.00000000       0.004
   0.11111111  0.00000000  0.00000000       0.009
   0.22222222  0.00000000  0.00000000       0.009
   0.33333333  0.00000000  0.00000000       0.009
   0.44444444  0.00000000  0.00000000       0.009
   0.00000000  0.20000000  0.00000000       0.009
   0.11111111  0.20000000  0.00000000       0.018
   0.22222222  0.20000000  0.00000000       0.018
   0.33333333  0.20000000  0.00000000       0.018
   0.44444444  0.20000000  0.00000000       0.018
   0.00000000  0.40000000  0.00000000       0.009
   0.11111111  0.40000000  0.00000000       0.018
   0.22222222  0.40000000  0.00000000       0.018
   0.33333333  0.40000000  0.00000000       0.018
   0.44444444  0.40000000  0.00000000       0.018
   0.00000000  0.00000000  0.20000000       0.009
   0.11111111  0.00000000  0.20000000       0.018
   0.22222222  0.00000000  0.20000000       0.018
   0.33333333  0.00000000  0.20000000       0.018
   0.44444444  0.00000000  0.20000000       0.018
   0.00000000  0.20000000  0.20000000       0.018
   0.11111111  0.20000000  0.20000000       0.036
   0.22222222  0.20000000  0.20000000       0.036
   0.33333333  0.20000000  0.20000000       0.036
   0.44444444  0.20000000  0.20000000       0.036
   0.00000000  0.40000000  0.20000000       0.018
   0.11111111  0.40000000  0.20000000       0.036
   0.22222222  0.40000000  0.20000000       0.036
   0.33333333  0.40000000  0.20000000       0.036
   0.44444444  0.40000000  0.20000000       0.036
   0.00000000  0.00000000  0.40000000       0.009
   0.11111111  0.00000000  0.40000000       0.018
   0.22222222  0.00000000  0.40000000       0.018
   0.33333333  0.00000000  0.40000000       0.018
   0.44444444  0.00000000  0.40000000       0.018
   0.00000000  0.20000000  0.40000000       0.018
   0.11111111  0.20000000  0.40000000       0.036
   0.22222222  0.20000000  0.40000000       0.036
   0.33333333  0.20000000  0.40000000       0.036
   0.44444444  0.20000000  0.40000000       0.036
   0.00000000  0.40000000  0.40000000       0.018
   0.11111111  0.40000000  0.40000000       0.036
   0.22222222  0.40000000  0.40000000       0.036
   0.33333333  0.40000000  0.40000000       0.036
   0.44444444  0.40000000  0.40000000       0.036
 
 position of ions in fractional coordinates (direct lattice) 
   0.25000000  0.25000000  0.25000000
   0.75000000  0.75000000  0.25000000
   0.25000000  0.75000000  0.75000000
   0.75000000  0.25000000  0.75000000
   0.75000000  0.75000000  0.75000000
   0.25000000  0.25000000  0.75000000
   0.75000000  0.25000000  0.25000000
   0.25000000  0.75000000  0.25000000
   0.00000000  0.34172906  0.00000000
   0.00000000  0.65827094  0.00000000
   0.00000000  0.84172906  0.50000000
   0.00000000  0.15827094  0.50000000
   0.50000000  0.34172906  0.50000000
   0.50000000  0.65827094  0.50000000
   0.50000000  0.84172906  0.00000000
   0.50000000  0.15827094  0.00000000
   0.00000000  0.00000000  0.15829836
   0.00000000  0.00000000  0.84170164
   0.00000000  0.50000000  0.65829836
   0.00000000  0.50000000  0.34170164
   0.50000000  0.00000000  0.65829836
   0.50000000  0.00000000  0.34170164
   0.50000000  0.50000000  0.15829836
   0.50000000  0.50000000  0.84170164
 
 position of ions in cartesian coordinates  (Angst):
   1.21458985  2.13591317  2.13577738
   3.64376956  6.40773952  2.13577738
   1.21458985  6.40773952  6.40733214
   3.64376956  2.13591317  6.40733214
   3.64376956  6.40773952  6.40733214
   1.21458985  2.13591317  6.40733214
   3.64376956  2.13591317  2.13577738
   1.21458985  6.40773952  2.13577738
   0.00000000  2.91961437  0.00000000
   0.00000000  5.62403832  0.00000000
   0.00000000  7.19144072  4.27155476
   0.00000000  1.35221197  4.27155476
   2.42917970  2.91961437  4.27155476
   2.42917970  5.62403832  4.27155476
   2.42917970  7.19144072  0.00000000
   2.42917970  1.35221197  0.00000000
   0.00000000  0.00000000  1.35236025
   0.00000000  0.00000000  7.19074927
   0.00000000  4.27182635  5.62391501
   0.00000000  4.27182635  2.91919451
   2.42917970  0.00000000  5.62391501
   2.42917970  0.00000000  2.91919451
   2.42917970  4.27182635  1.35236025
   2.42917970  4.27182635  7.19074927
 


--------------------------------------------------------------------------------------------------------


 k-point  1 :  0.00000.00000.0000  plane waves:    4081
 k-point  2 :  0.11110.00000.0000  plane waves:    4069
 k-point  3 :  0.22220.00000.0000  plane waves:    4054
 k-point  4 :  0.33330.00000.0000  plane waves:    4098
 k-point  5 :  0.44440.00000.0000  plane waves:    4058
 k-point  6 :  0.00000.20000.0000  plane waves:    4076
 k-point  7 :  0.11110.20000.0000  plane waves:    4072
 k-point  8 :  0.22220.20000.0000  plane waves:    4078
 k-point  9 :  0.33330.20000.0000  plane waves:    4100
 k-point 10 :  0.44440.20000.0000  plane waves:    4095
 k-point 11 :  0.00000.40000.0000  plane waves:    4090
 k-point 12 :  0.11110.40000.0000  plane waves:    4084
 k-point 13 :  0.22220.40000.0000  plane waves:    4079
 k-point 14 :  0.33330.40000.0000  plane waves:    4085
 k-point 15 :  0.44440.40000.0000  plane waves:    4098
 k-point 16 :  0.00000.00000.2000  plane waves:    4076
 k-point 17 :  0.11110.00000.2000  plane waves:    4072
 k-point 18 :  0.22220.00000.2000  plane waves:    4078
 k-point 19 :  0.33330.00000.2000  plane waves:    4100
 k-point 20 :  0.44440.00000.2000  plane waves:    4095
 k-point 21 :  0.00000.20000.2000  plane waves:    4081
 k-point 22 :  0.11110.20000.2000  plane waves:    4089
 k-point 23 :  0.22220.20000.2000  plane waves:    4085
 k-point 24 :  0.33330.20000.2000  plane waves:    4094
 k-point 25 :  0.44440.20000.2000  plane waves:    4094
 k-point 26 :  0.00000.40000.2000  plane waves:    4093
 k-point 27 :  0.11110.40000.2000  plane waves:    4090
 k-point 28 :  0.22220.40000.2000  plane waves:    4094
 k-point 29 :  0.33330.40000.2000  plane waves:    4093
 k-point 30 :  0.44440.40000.2000  plane waves:    4101
 k-point 31 :  0.00000.00000.4000  plane waves:    4090
 k-point 32 :  0.11110.00000.4000  plane waves:    4084
 k-point 33 :  0.22220.00000.4000  plane waves:    4079
 k-point 34 :  0.33330.00000.4000  plane waves:    4085
 k-point 35 :  0.44440.00000.4000  plane waves:    4098
 k-point 36 :  0.00000.20000.4000  plane waves:    4093
 k-point 37 :  0.11110.20000.4000  plane waves:    4090
 k-point 38 :  0.22220.20000.4000  plane waves:    4094
 k-point 39 :  0.33330.20000.4000  plane waves:    4093
 k-point 40 :  0.44440.20000.4000  plane waves:    4101
 k-point 41 :  0.00000.40000.4000  plane waves:    4097
 k-point 42 :  0.11110.40000.4000  plane waves:    4093
 k-point 43 :  0.22220.40000.4000  plane waves:    4078
 k-point 44 :  0.33330.40000.4000  plane waves:    4101
 k-point 45 :  0.44440.40000.4000  plane waves:    4105

 maximum and minimum number of plane-waves per node :      4105     4054

 maximum number of plane-waves:      4105
 maximum index in each direction: 
   IXMAX=    6   IYMAX=   11   IZMAX=   11
   IXMIN=   -7   IYMIN=  -12   IZMIN=  -12

 WARNING: aliasing errors must be expected set NGX to  28 to avoid them
 WARNING: aliasing errors must be expected set NGY to  48 to avoid them
 WARNING: aliasing errors must be expected set NGZ to  48 to avoid them
 aliasing errors are usually negligible using standard VASP settings
 and one can safely disregard these warnings

 serial   3D FFT for wavefunctions
 parallel 3D FFT for charge:
    minimum data exchange during FFTs selected (reduces bandwidth)


 total amount of memory used by VASP on root node   105535. kBytes
========================================================================

   base      :      30000. kBytes
   nonlr-proj:       3035. kBytes
   fftplans  :       1894. kBytes
   grid      :       4008. kBytes
   one-center:        373. kBytes
   wavefun   :      66225. kBytes
 
 Broyden mixing: mesh for mixing (old mesh)
   NGX = 13   NGY = 23   NGZ = 23
  (NGX  = 40   NGY  = 72   NGZ  = 72)
  gives a total of   6877 points

 initial charge density was supplied:
 charge density of overlapping atoms calculated
 number of electron     136.0000000 magnetization 
 keeping initial charge density in first step


--------------------------------------------------------------------------------------------------------


 Maximum index for non-local projection operator         1229
 Maximum index for augmentation-charges          684 (set IRDMAX)


--------------------------------------------------------------------------------------------------------


 First call to EWALD:  gamma=   0.250
 Maximum number of real-space cells 4x 2x 2
 Maximum number of reciprocal cells 2x 3x 3

    FEWALD:  cpu time    0.00: real time    0.00


----------------------------------------- Iteration    1(   1)  ---------------------------------------


    POTLOK:  cpu time    0.04: real time    0.04
    SETDIJ:  cpu time    0.01: real time    0.01
     EDDAV:  cpu time    9.64: real time    9.67
       DOS:  cpu time    0.01: real time    0.00
    --------------------------------------------
      LOOP:  cpu time    9.71: real time    9.73

 eigenvalue-minimisations  :  7560
 total energy-change (2. order) : 0.8029866E+03  (-0.3587478E+04)
 number of electron     136.0000000 magnetization 
 augmentation part      136.0000000 magnetization 

 Free energy of the ion-electron system (eV)
  ---------------------------------------------------
  alpha Z        PSCENC =       197.11519942
  Ewald energy   TEWEN  =     -7446.60726641
  -1/2 Hartree   DENC   =     -5193.00169389
  -exchange  EXHF       =         0.00000000
  -V(xc)+E(xc)   XCENC  =       -51.28392894
  PAW double counting   =     10884.85579304   -11220.31766912
  entropy T*S    EENTRO =         0.00693079
  eigenvalues    EBANDS =      1648.13376681
  atomic energy  EATOM  =     11984.08544995
  ---------------------------------------------------
  free energy    TOTEN  =       802.98658167 eV

  energy without entropy =      802.97965087  energy(sigma->0) =      802.98427140


--------------------------------------------------------------------------------------------------------




----------------------------------------- Iteration    1(   2)  ---------------------------------------


     EDDAV:  cpu time    9.81: real time    9.84
       DOS:  cpu time    0.00: real time    0.01
    --------------------------------------------
      LOOP:  cpu time    9.81: real time    9.85

 eigenvalue-minimisations  :  7564
 total energy-change (2. order) :-0.8321846E+03  (-0.8079179E+03)
 number of electron     136.0000000 magnetization 
 augmentation part      136.0000000 magnetization 

 Free energy of the ion-electron system (eV)
  ---------------------------------------------------
  alpha Z        PSCENC =       197.11519942
  Ewald energy   TEWEN  =     -7446.60726641
  -1/2 Hartree   DENC   =     -5193.00169389
  -exchange  EXHF       =         0.00000000
  -V(xc)+E(xc)   XCENC  =       -51.28392894
  PAW double counting   =     10884.85579304   -11220.31766912
  entropy T*S    EENTRO =         0.00051831
  eigenvalues    EBANDS =       815.95559180
  atomic energy  EATOM  =     11984.08544995
  ---------------------------------------------------
  free energy    TOTEN  =       -29.19800583 eV

  energy without entropy =      -29.19852414  energy(sigma->0) =      -29.19817860


--------------------------------------------------------------------------------------------------------




----------------------------------------- Iteration    1(   3)  ---------------------------------------


     EDDAV:  cpu time   11.59: real time   11.62
       DOS:  cpu time    0.00: real time    0.01
    --------------------------------------------
      LOOP:  cpu time   11.60: real time   11.63

 eigenvalue-minimisations  :  9928
 total energy-change (2. order) :-0.7865072E+02  (-0.7229219E+02)
 number of electron     136.0000000 magnetization 
 augmentation part      136.0000000 magnetization 

 Free energy of the ion-electron system (eV)
  ---------------------------------------------------
  alpha Z        PSCENC =       197.11519942
  Ewald energy   TEWEN  =     -7446.60726641
  -1/2 Hartree   DENC   =     -5193.00169389
  -exchange  EXHF       =         0.00000000
  -V(xc)+E(xc)   XCENC  =       -51.28392894
  PAW double counting   =     10884.85579304   -11220.31766912
  entropy T*S    EENTRO =        -0.01049639
  eigenvalues    EBANDS =       737.31588493
  atomic energy  EATOM  =     11984.08544995
  ---------------------------------------------------
  free energy    TOTEN  =      -107.84872740 eV

  energy without entropy =     -107.83823101  energy(sigma->0) =     -107.84522860


--------------------------------------------------------------------------------------------------------




----------------------------------------- Iteration    1(   4)  ---------------------------------------


     EDDAV:  cpu time   12.60: real time   12.64
       DOS:  cpu time    0.02: real time    0.01
    --------------------------------------------
      LOOP:  cpu time   12.62: real time   12.65

 eigenvalue-minimisations  : 11920
 total energy-change (2. order) :-0.4477487E+01  (-0.4374330E+01)
 number of electron     136.0000000 magnetization 
 augmentation part      136.0000000 magnetization 

 Free energy of the ion-electron system (eV)
  ---------------------------------------------------
  alpha Z        PSCENC =       197.11519942
  Ewald energy   TEWEN  =     -7446.60726641
  -1/2 Hartree   DENC   =     -5193.00169389
  -exchange  EXHF       =         0.00000000
  -V(xc)+E(xc)   XCENC  =       -51.28392894
  PAW double counting   =     10884.85579304   -11220.31766912
  entropy T*S    EENTRO =        -0.00954968
  eigenvalues    EBANDS =       732.83745133
  atomic energy  EATOM  =     11984.08544995
  ---------------------------------------------------
  free energy    TOTEN  =      -112.32621429 eV

  energy without entropy =     -112.31666461  energy(sigma->0) =     -112.32303106


--------------------------------------------------------------------------------------------------------




----------------------------------------- Iteration    1(   5)  ---------------------------------------


     EDDAV:  cpu time   13.08: real time   13.12
       DOS:  cpu time    0.01: real time    0.01
    CHARGE:  cpu time    0.38: real time    0.38
    MIXING:  cpu time    0.00: real time    0.00
    --------------------------------------------
      LOOP:  cpu time   13.47: real time   13.51

 eigenvalue-minimisations  : 11880
 total energy-change (2. order) :-0.9779028E-01  (-0.9733828E-01)
 number of electron     135.9998803 magnetization 
 augmentation part       45.5738627 magnetization 

 Broyden mixing:
  rms(total) = 0.43236E+01    rms(broyden)= 0.43212E+01
  rms(prec ) = 0.61279E+01
  weight for this iteration     100.00

 Free energy of the ion-electron system (eV)
  ---------------------------------------------------
  alpha Z        PSCENC =       197.11519942
  Ewald energy   TEWEN  =     -7446.60726641
  -1/2 Hartree   DENC   =     -5193.00169389
  -exchange  EXHF       =         0.00000000
  -V(xc)+E(xc)   XCENC  =       -51.28392894
  PAW double counting   =     10884.85579304   -11220.31766912
  entropy T*S    EENTRO =        -0.00991546
  eigenvalues    EBANDS =       732.74002684
  atomic energy  EATOM  =     11984.08544995
  ---------------------------------------------------
  free energy    TOTEN  =      -112.42400457 eV

  energy without entropy =     -112.41408910  energy(sigma->0) =     -112.42069941


--------------------------------------------------------------------------------------------------------




----------------------------------------- Iteration    1(   6)  ---------------------------------------


    POTLOK:  cpu time    0.04: real time    0.04
    SETDIJ:  cpu time    0.01: real time    0.01
    EDDIAG:  cpu time    1.51: real time    1.52
  RMM-DIIS:  cpu time    4.93: real time    4.93
    ORTHCH:  cpu time    0.44: real time    0.45
       DOS:  cpu time    0.01: real time    0.01
    CHARGE:  cpu time    0.38: real time    0.39
    MIXING:  cpu time    0.01: real time    0.00
    --------------------------------------------
      LOOP:  cpu time    7.33: real time    7.34

 eigenvalue-minimisations  :  8264
 total energy-change (2. order) :-0.2715181E+02  (-0.6795283E+02)
 number of electron     135.9998033 magnetization 
 augmentation part       63.0975153 magnetization 

 Broyden mixing:
  rms(total) = 0.38133E+01    rms(broyden)= 0.38115E+01
  rms(prec ) = 0.53829E+01
  weight for this iteration     100.00

 eigenvalues of (default mixing * dielectric matrix)
  average eigenvalue GAMMA=   0.5316
  0.5316

 Free energy of the ion-electron system (eV)
  ---------------------------------------------------
  alpha Z        PSCENC =       197.11519942
  Ewald energy   TEWEN  =     -7446.60726641
  -1/2 Hartree   DENC   =     -4609.34741376
  -exchange  EXHF       =         0.00000000
  -V(xc)+E(xc)   XCENC  =       -73.11554379
  PAW double counting   =     11170.29371920   -11397.32730416
  entropy T*S    EENTRO =         0.00169408
  eigenvalues    EBANDS =        35.32565005
  atomic energy  EATOM  =     11984.08544995
  ---------------------------------------------------
  free energy    TOTEN  =      -139.57581542 eV

  energy without entropy =     -139.57750950  energy(sigma->0) =     -139.57638011


--------------------------------------------------------------------------------------------------------




----------------------------------------- Iteration    1(   7)  ---------------------------------------


    POTLOK:  cpu time    0.03: real time    0.04
    SETDIJ:  cpu time    0.02: real time    0.01
    EDDIAG:  cpu time    1.56: real time    1.56
  RMM-DIIS:  cpu time    4.77: real time    4.78
    ORTHCH:  cpu time    0.45: real time    0.46
       DOS:  cpu time    0.01: real time    0.01
    CHARGE:  cpu time    0.39: real time    0.39
    MIXING:  cpu time    0.00: real time    0.00
    --------------------------------------------
      LOOP:  cpu time    7.23: real time    7.25

 eigenvalue-minimisations  :  7560
 total energy-change (2. order) : 0.4470963E+02  (-0.1606812E+02)
 number of electron     135.9998233 magnetization 
 augmentation part       56.9460894 magnetization 

 Broyden mixing:
  rms(total) = 0.86722E+00    rms(broyden)= 0.86671E+00
  rms(prec ) = 0.13622E+01
  weight for this iteration     100.00

 eigenvalues of (default mixing * dielectric matrix)
  average eigenvalue GAMMA=   0.8691
  0.6590  1.0793

 Free energy of the ion-electron system (eV)
  ---------------------------------------------------
  alpha Z        PSCENC =       197.11519942
  Ewald energy   TEWEN  =     -7446.60726641
  -1/2 Hartree   DENC   =     -4877.26160451
  -exchange  EXHF       =         0.00000000
  -V(xc)+E(xc)   XCENC  =       -62.76396975
  PAW double counting   =     11899.05981032   -12225.59950525
  entropy T*S    EENTRO =         0.00602930
  eigenvalues    EBANDS =       437.09966760
  atomic energy  EATOM  =     11984.08544995
  ---------------------------------------------------
  free energy    TOTEN  =       -94.86618934 eV

  energy without entropy =      -94.87221863  energy(sigma->0) =      -94.86819910


--------------------------------------------------------------------------------------------------------




----------------------------------------- Iteration    1(   8)  ---------------------------------------


    POTLOK:  cpu time    0.03: real time    0.04
    SETDIJ:  cpu time    0.02: real time    0.01
    EDDIAG:  cpu time    1.55: real time    1.56
  RMM-DIIS:  cpu time    4.79: real time    4.80
    ORTHCH:  cpu time    0.46: real time    0.46
       DOS:  cpu time    0.00: real time    0.01
    CHARGE:  cpu time    0.39: real time    0.39
    MIXING:  cpu time    0.00: real time    0.00
    --------------------------------------------
      LOOP:  cpu time    7.24: real time    7.27

 eigenvalue-minimisations  :  7704
 total energy-change (2. order) : 0.1496547E+01  (-0.2158227E+01)
 number of electron     135.9998318 magnetization 
 augmentation part       54.7157864 magnetization 

 Broyden mixing:
  rms(total) = 0.25687E+00    rms(broyden)= 0.25629E+00
  rms(prec ) = 0.34321E+00
  weight for this iteration     100.00

 eigenvalues of (default mixing * dielectric matrix)
  average eigenvalue GAMMA=   1.1775
  2.0631  0.7347  0.7347

 Free energy of the ion-electron system (eV)
  ---------------------------------------------------
  alpha Z        PSCENC =       197.11519942
  Ewald energy   TEWEN  =     -7446.60726641
  -1/2 Hartree   DENC   =     -4955.47761737
  -exchange  EXHF       =         0.00000000
  -V(xc)+E(xc)   XCENC  =       -60.17798129
  PAW double counting   =     12479.71930282   -12831.39016228
  entropy T*S    EENTRO =        -0.01697887
  eigenvalues    EBANDS =       539.38041184
  atomic energy  EATOM  =     11984.08544995
  ---------------------------------------------------
  free energy    TOTEN  =       -93.36964218 eV

  energy without entropy =      -93.35266331  energy(sigma->0) =      -93.36398255


--------------------------------------------------------------------------------------------------------




----------------------------------------- Iteration    1(   9)  ---------------------------------------


    POTLOK:  cpu time    0.04: real time    0.04
    SETDIJ:  cpu time    0.01: real time    0.01
    EDDIAG:  cpu time    1.56: real time    1.56
  RMM-DIIS:  cpu time    4.99: real time    5.00
    ORTHCH:  cpu time    0.45: real time    0.46
       DOS:  cpu time    0.01: real time    0.01
    CHARGE:  cpu time    0.39: real time    0.39
    MIXING:  cpu time    0.00: real time    0.00
    --------------------------------------------
      LOOP:  cpu time    7.45: real time    7.47

 eigenvalue-minimisations  :  8063
 total energy-change (2. order) :-0.4609365E-01  (-0.2244430E+00)
 number of electron     135.9998315 magnetization 
 augmentation part       54.6247854 magnetization 

 Broyden mixing:
  rms(total) = 0.12891E+00    rms(broyden)= 0.12885E+00
  rms(prec ) = 0.20201E+00
  weight for this iteration     100.00

 eigenvalues of (default mixing * dielectric matrix)
  average eigenvalue GAMMA=   1.3057
  2.2046  0.7740  0.7740  1.4701

 Free energy of the ion-electron system (eV)
  ---------------------------------------------------
  alpha Z        PSCENC =       197.11519942
  Ewald energy   TEWEN  =     -7446.60726641
  -1/2 Hartree   DENC   =     -4948.73932910
  -exchange  EXHF       =         0.00000000
  -V(xc)+E(xc)   XCENC  =       -60.60882970
  PAW double counting   =     13256.52040282   -13612.84032646
  entropy T*S    EENTRO =        -0.01733643
  eigenvalues    EBANDS =       537.67630008
  atomic energy  EATOM  =     11984.08544995
  ---------------------------------------------------
  free energy    TOTEN  =       -93.41573583 eV

  energy without entropy =      -93.39839940  energy(sigma->0) =      -93.40995702


--------------------------------------------------------------------------------------------------------




----------------------------------------- Iteration    1(  10)  ---------------------------------------


    POTLOK:  cpu time    0.03: real time    0.04
    SETDIJ:  cpu time    0.02: real time    0.01
    EDDIAG:  cpu time    1.56: real time    1.56
  RMM-DIIS:  cpu time    4.80: real time    4.82
    ORTHCH:  cpu time    0.46: real time    0.46
       DOS:  cpu time    0.00: real time    0.01
    CHARGE:  cpu time    0.39: real time    0.39
    MIXING:  cpu time    0.00: real time    0.00
    --------------------------------------------
      LOOP:  cpu time    7.26: real time    7.28

 eigenvalue-minimisations  :  7721
 total energy-change (2. order) : 0.1673915E-01  (-0.2968168E-01)
 number of electron     135.9998304 magnetization 
 augmentation part       54.9228393 magnetization 

 Broyden mixing:
  rms(total) = 0.23129E-01    rms(broyden)= 0.23060E-01
  rms(prec ) = 0.39386E-01
  weight for this iteration     100.00

 eigenvalues of (default mixing * dielectric matrix)
  average eigenvalue GAMMA=   1.4417
  2.3442  2.3442  0.7693  0.7693  0.9815

 Free energy of the ion-electron system (eV)
  ---------------------------------------------------
  alpha Z        PSCENC =       197.11519942
  Ewald energy   TEWEN  =     -7446.60726641
  -1/2 Hartree   DENC   =     -4939.67615412
  -exchange  EXHF       =         0.00000000
  -V(xc)+E(xc)   XCENC  =       -60.71486515
  PAW double counting   =     13310.78028723   -13666.66026800
  entropy T*S    EENTRO =        -0.01332199
  eigenvalues    EBANDS =       528.29194239
  atomic energy  EATOM  =     11984.08544995
  ---------------------------------------------------
  free energy    TOTEN  =       -93.39899668 eV

  energy without entropy =      -93.38567468  energy(sigma->0) =      -93.39455601


--------------------------------------------------------------------------------------------------------




----------------------------------------- Iteration    1(  11)  ---------------------------------------


    POTLOK:  cpu time    0.04: real time    0.04
    SETDIJ:  cpu time    0.01: real time    0.01
    EDDIAG:  cpu time    1.56: real time    1.56
  RMM-DIIS:  cpu time    4.58: real time    4.60
    ORTHCH:  cpu time    0.46: real time    0.45
       DOS:  cpu time    0.00: real time    0.01
    CHARGE:  cpu time    0.39: real time    0.39
    MIXING:  cpu time    0.00: real time    0.00
    --------------------------------------------
      LOOP:  cpu time    7.04: real time    7.06

 eigenvalue-minimisations  :  7690
 total energy-change (2. order) :-0.3609641E-02  (-0.3085372E-02)
 number of electron     135.9998308 magnetization 
 augmentation part       54.8286971 magnetization 

 Broyden mixing:
  rms(total) = 0.54495E-01    rms(broyden)= 0.54493E-01
  rms(prec ) = 0.75140E-01
  weight for this iteration     100.00

 eigenvalues of (default mixing * dielectric matrix)
  average eigenvalue GAMMA=   1.3543
  2.4725  2.0078  0.7791  0.7791  1.2341  0.8532

 Free energy of the ion-electron system (eV)
  ---------------------------------------------------
  alpha Z        PSCENC =       197.11519942
  Ewald energy   TEWEN  =     -7446.60726641
  -1/2 Hartree   DENC   =     -4940.58773413
  -exchange  EXHF       =         0.00000000
  -V(xc)+E(xc)   XCENC  =       -60.50388872
  PAW double counting   =     13312.53285070   -13669.47156000
  entropy T*S    EENTRO =        -0.01356554
  eigenvalues    EBANDS =       530.04790841
  atomic energy  EATOM  =     11984.08544995
  ---------------------------------------------------
  free energy    TOTEN  =       -93.40260632 eV

  energy without entropy =      -93.38904078  energy(sigma->0) =      -93.39808447


--------------------------------------------------------------------------------------------------------




----------------------------------------- Iteration    1(  12)  ---------------------------------------


    POTLOK:  cpu time    0.04: real time    0.04
    SETDIJ:  cpu time    0.01: real time    0.01
    EDDIAG:  cpu time    1.52: real time    1.52
  RMM-DIIS:  cpu time    4.43: real time    4.45
    ORTHCH:  cpu time    0.44: real time    0.44
       DOS:  cpu time    0.01: real time    0.01
    CHARGE:  cpu time    0.38: real time    0.38
    MIXING:  cpu time    0.00: real time    0.00
    --------------------------------------------
      LOOP:  cpu time    6.83: real time    6.85

 eigenvalue-minimisations  :  7628
 total energy-change (2. order) : 0.4960656E-02  (-0.2998329E-02)
 number of electron     135.9998302 magnetization 
 augmentation part       54.9623902 magnetization 

 Broyden mixing:
  rms(total) = 0.91082E-02    rms(broyden)= 0.90556E-02
  rms(prec ) = 0.12628E-01
  weight for this iteration     100.00

 eigenvalues of (default mixing * dielectric matrix)
  average eigenvalue GAMMA=   1.5694
  2.8466  2.8466  1.6489  1.2930  0.7740  0.7740  0.8023

 Free energy of the ion-electron system (eV)
  ---------------------------------------------------
  alpha Z        PSCENC =       197.11519942
  Ewald energy   TEWEN  =     -7446.60726641
  -1/2 Hartree   DENC   =     -4936.79018527
  -exchange  EXHF       =         0.00000000
  -V(xc)+E(xc)   XCENC  =       -60.67265417
  PAW double counting   =     13316.20582766   -13672.08698858
  entropy T*S    EENTRO =        -0.01207891
  eigenvalues    EBANDS =       525.36505066
  atomic energy  EATOM  =     11984.08544995
  ---------------------------------------------------
  free energy    TOTEN  =       -93.39764566 eV

  energy without entropy =      -93.38556675  energy(sigma->0) =      -93.39361936


--------------------------------------------------------------------------------------------------------




----------------------------------------- Iteration    1(  13)  ---------------------------------------


    POTLOK:  cpu time    0.04: real time    0.04
    SETDIJ:  cpu time    0.01: real time    0.01
    EDDIAG:  cpu time    1.49: real time    1.50
  RMM-DIIS:  cpu time    4.88: real time    4.89
    ORTHCH:  cpu time    0.45: real time    0.45
       DOS:  cpu time    0.00: real time    0.01
    CHARGE:  cpu time    0.38: real time    0.38
    MIXING:  cpu time    0.01: real time    0.00
    --------------------------------------------
      LOOP:  cpu time    7.26: real time    7.28

 eigenvalue-minimisations  :  8548
 total energy-change (2. order) :-0.2469965E-04  (-0.1619652E-03)
 number of electron     135.9998303 magnetization 
 augmentation part       54.9550798 magnetization 

 Broyden mixing:
  rms(total) = 0.34458E-02    rms(broyden)= 0.34440E-02
  rms(prec ) = 0.49748E-02
  weight for this iteration     100.00

 eigenvalues of (default mixing * dielectric matrix)
  average eigenvalue GAMMA=   1.4637
  2.5365  2.5365  1.6363  1.6363  0.7746  0.7746  1.0162  0.7984

 Free energy of the ion-electron system (eV)
  ---------------------------------------------------
  alpha Z        PSCENC =       197.11519942
  Ewald energy   TEWEN  =     -7446.60726641
  -1/2 Hartree   DENC   =     -4937.75183331
  -exchange  EXHF       =         0.00000000
  -V(xc)+E(xc)   XCENC  =       -60.63701435
  PAW double counting   =     13306.35506993   -13661.96564400
  entropy T*S    EENTRO =        -0.01252348
  eigenvalues    EBANDS =       526.02089189
  atomic energy  EATOM  =     11984.08544995
  ---------------------------------------------------
  free energy    TOTEN  =       -93.39767036 eV

  energy without entropy =      -93.38514688  energy(sigma->0) =      -93.39349587


--------------------------------------------------------------------------------------------------------




----------------------------------------- Iteration    1(  14)  ---------------------------------------


    POTLOK:  cpu time    0.03: real time    0.04
    SETDIJ:  cpu time    0.02: real time    0.01
    EDDIAG:  cpu time    1.53: real time    1.54
  RMM-DIIS:  cpu time    4.73: real time    4.74
    ORTHCH:  cpu time    0.44: real time    0.45
       DOS:  cpu time    0.01: real time    0.01
    CHARGE:  cpu time    0.38: real time    0.38
    MIXING:  cpu time    0.00: real time    0.00
    --------------------------------------------
      LOOP:  cpu time    7.14: real time    7.17

 eigenvalue-minimisations  :  7833
 total energy-change (2. order) :-0.8293162E-05  (-0.5108327E-04)
 number of electron     135.9998303 magnetization 
 augmentation part       54.9416112 magnetization 

 Broyden mixing:
  rms(total) = 0.35537E-02    rms(broyden)= 0.35529E-02
  rms(prec ) = 0.45097E-02
  weight for this iteration     100.00

 eigenvalues of (default mixing * dielectric matrix)
  average eigenvalue GAMMA=   1.6018
  3.4201  2.7665  1.9920  1.9920  0.7774  0.7774  0.9903  0.8504  0.8504

 Free energy of the ion-electron system (eV)
  ---------------------------------------------------
  alpha Z        PSCENC =       197.11519942
  Ewald energy   TEWEN  =     -7446.60726641
  -1/2 Hartree   DENC   =     -4937.95559745
  -exchange  EXHF       =         0.00000000
  -V(xc)+E(xc)   XCENC  =       -60.61920252
  PAW double counting   =     13305.76734483   -13661.54834964
  entropy T*S    EENTRO =        -0.01253939
  eigenvalues    EBANDS =       526.37728255
  atomic energy  EATOM  =     11984.08544995
  ---------------------------------------------------
  free energy    TOTEN  =       -93.39767866 eV

  energy without entropy =      -93.38513926  energy(sigma->0) =      -93.39349886


--------------------------------------------------------------------------------------------------------




----------------------------------------- Iteration    1(  15)  ---------------------------------------


    POTLOK:  cpu time    0.03: real time    0.04
    SETDIJ:  cpu time    0.01: real time    0.01
    EDDIAG:  cpu time    1.54: real time    1.54
  RMM-DIIS:  cpu time    4.82: real time    4.83
    ORTHCH:  cpu time    0.44: real time    0.44
       DOS:  cpu time    0.00: real time    0.01
    CHARGE:  cpu time    0.38: real time    0.38
    MIXING:  cpu time    0.01: real time    0.00
    --------------------------------------------
      LOOP:  cpu time    7.24: real time    7.25

 eigenvalue-minimisations  :  8097
 total energy-change (2. order) : 0.1577177E-04  (-0.5082983E-05)
 number of electron     135.9998303 magnetization 
 augmentation part       54.9421181 magnetization 

 Broyden mixing:
  rms(total) = 0.27012E-02    rms(broyden)= 0.27012E-02
  rms(prec ) = 0.36222E-02
  weight for this iteration     100.00

 eigenvalues of (default mixing * dielectric matrix)
  average eigenvalue GAMMA=   1.4784
  2.8560  2.6446  1.7805  1.5547  1.5547  0.7767  0.7767  1.0597  0.9257  0.8548

 Free energy of the ion-electron system (eV)
  ---------------------------------------------------
  alpha Z        PSCENC =       197.11519942
  Ewald energy   TEWEN  =     -7446.60726641
  -1/2 Hartree   DENC   =     -4938.11841503
  -exchange  EXHF       =         0.00000000
  -V(xc)+E(xc)   XCENC  =       -60.61958486
  PAW double counting   =     13300.19369967   -13655.87360915
  entropy T*S    EENTRO =        -0.01256112
  eigenvalues    EBANDS =       526.43942465
  atomic energy  EATOM  =     11984.08544995
  ---------------------------------------------------
  free energy    TOTEN  =       -93.39766288 eV

  energy without entropy =      -93.38510176  energy(sigma->0) =      -93.39347584


--------------------------------------------------------------------------------------------------------




----------------------------------------- Iteration    1(  16)  ---------------------------------------


    POTLOK:  cpu time    0.03: real time    0.04
    SETDIJ:  cpu time    0.01: real time    0.01
    EDDIAG:  cpu time    1.51: real time    1.51
  RMM-DIIS:  cpu time    4.51: real time    4.52
    ORTHCH:  cpu time    0.44: real time    0.45
       DOS:  cpu time    0.01: real time    0.01
    CHARGE:  cpu time    0.39: real time    0.38
    MIXING:  cpu time    0.00: real time    0.00
    --------------------------------------------
      LOOP:  cpu time    6.90: real time    6.92

 eigenvalue-minimisations  :  7533
 total energy-change (2. order) : 0.7997767E-05  (-0.3885772E-05)
 number of electron     135.9998303 magnetization 
 augmentation part       54.9459343 magnetization 

 Broyden mixing:
  rms(total) = 0.67822E-03    rms(broyden)= 0.67778E-03
  rms(prec ) = 0.93363E-03
  weight for this iteration     100.00

 eigenvalues of (default mixing * dielectric matrix)
  average eigenvalue GAMMA=   1.4297
  2.9627  2.6099  1.8826  1.7279  1.7279  0.7764  0.7764  1.0407  0.8665  0.8991
  0.4566

 Free energy of the ion-electron system (eV)
  ---------------------------------------------------
  alpha Z        PSCENC =       197.11519942
  Ewald energy   TEWEN  =     -7446.60726641
  -1/2 Hartree   DENC   =     -4937.99795998
  -exchange  EXHF       =         0.00000000
  -V(xc)+E(xc)   XCENC  =       -60.62731667
  PAW double counting   =     13302.47975724   -13658.16129488
  entropy T*S    EENTRO =        -0.01255822
  eigenvalues    EBANDS =       526.32833465
  atomic energy  EATOM  =     11984.08544995
  ---------------------------------------------------
  free energy    TOTEN  =       -93.39765489 eV

  energy without entropy =      -93.38509667  energy(sigma->0) =      -93.39346881


--------------------------------------------------------------------------------------------------------




----------------------------------------- Iteration    1(  17)  ---------------------------------------


    POTLOK:  cpu time    0.03: real time    0.04
    SETDIJ:  cpu time    0.02: real time    0.01
    EDDIAG:  cpu time    1.54: real time    1.54
  RMM-DIIS:  cpu time    3.21: real time    3.23
    ORTHCH:  cpu time    0.45: real time    0.44
       DOS:  cpu time    0.00: real time    0.01
    CHARGE:  cpu time    0.38: real time    0.38
    MIXING:  cpu time    0.00: real time    0.00
    --------------------------------------------
      LOOP:  cpu time    5.63: real time    5.65

 eigenvalue-minimisations  :  5077
 total energy-change (2. order) :-0.1129418E-05  (-0.3178251E-06)
 number of electron     135.9998303 magnetization 
 augmentation part       54.9458545 magnetization 

 Broyden mixing:
  rms(total) = 0.64407E-03    rms(broyden)= 0.64405E-03
  rms(prec ) = 0.94218E-03
  weight for this iteration     100.00

 eigenvalues of (default mixing * dielectric matrix)
  average eigenvalue GAMMA=   1.4482
  2.6970  2.6970  1.7828  1.7828  1.6532  1.1914  1.1914  0.7767  0.7767  1.0245
  0.8750  0.9305

 Free energy of the ion-electron system (eV)
  ---------------------------------------------------
  alpha Z        PSCENC =       197.11519942
  Ewald energy   TEWEN  =     -7446.60726641
  -1/2 Hartree   DENC   =     -4937.98633539
  -exchange  EXHF       =         0.00000000
  -V(xc)+E(xc)   XCENC  =       -60.62778980
  PAW double counting   =     13301.53240966   -13657.22839688
  entropy T*S    EENTRO =        -0.01256313
  eigenvalues    EBANDS =       526.33163656
  atomic energy  EATOM  =     11984.08544995
  ---------------------------------------------------
  free energy    TOTEN  =       -93.39765602 eV

  energy without entropy =      -93.38509289  energy(sigma->0) =      -93.39346831


--------------------------------------------------------------------------------------------------------




----------------------------------------- Iteration    1(  18)  ---------------------------------------


    POTLOK:  cpu time    0.03: real time    0.04
    SETDIJ:  cpu time    0.01: real time    0.01
    EDDIAG:  cpu time    1.52: real time    1.52
  RMM-DIIS:  cpu time    4.03: real time    4.04
    ORTHCH:  cpu time    0.42: real time    0.42
       DOS:  cpu time    0.01: real time    0.01
    --------------------------------------------
      LOOP:  cpu time    6.03: real time    6.04

 eigenvalue-minimisations  :  6678
 total energy-change (2. order) :-0.2652650E-06  (-0.7533195E-06)
 number of electron     135.9998303 magnetization 
 augmentation part       54.9458545 magnetization 

 Free energy of the ion-electron system (eV)
  ---------------------------------------------------
  alpha Z        PSCENC =       197.11519942
  Ewald energy   TEWEN  =     -7446.60726641
  -1/2 Hartree   DENC   =     -4937.90204949
  -exchange  EXHF       =         0.00000000
  -V(xc)+E(xc)   XCENC  =       -60.63050487
  PAW double counting   =     13300.70009175   -13656.39461986
  entropy T*S    EENTRO =        -0.01252423
  eigenvalues    EBANDS =       526.24856746
  atomic energy  EATOM  =     11984.08544995
  ---------------------------------------------------
  free energy    TOTEN  =       -93.39765628 eV

  energy without entropy =      -93.38513205  energy(sigma->0) =      -93.39348154


--------------------------------------------------------------------------------------------------------




 average (electrostatic) potential at core
  the test charge radii are     0.9430  1.0406
  (the norm of the test charge is              1.0000)
       1 -64.3126       2 -64.3126       3 -64.3126       4 -64.3126       5 -64.3126
       6 -64.3126       7 -64.3126       8 -64.3126       9 -72.4833      10 -72.4833
      11 -72.4833      12 -72.4833      13 -72.4833      14 -72.4833      15 -72.4833
      16 -72.4833      17 -72.4835      18 -72.4835      19 -72.4835      20 -72.4835
      21 -72.4835      22 -72.4835      23 -72.4835      24 -72.4835
 
 
 
 E-fermi :   8.0865     XC(G=0): -10.8921     alpha+bet :-14.6519


 k-point   1 :       0.0000    0.0000    0.0000
  band No.  band energies     occupation 
      1      -2.7376      2.00000
      2      -0.8105      2.00000
      3      -0.8103      2.00000
      4      -0.6247      2.00000
      5      -0.6239      2.00000
      6       1.0668      2.00000
      7       1.1168      2.00000
      8       1.2523      2.00000
      9       1.2532      2.00000
     10       2.7346      2.00000
     11       2.7360      2.00000
     12       2.7444      2.00000
     13       2.7446      2.00000
     14       2.9415      2.00000
     15       2.9416      2.00000
     16       2.9638      2.00000
     17       3.0736      2.00000
     18       3.0737      2.00000
     19       3.2552      2.00000
     20       3.2553      2.00000
     21       3.2912      2.00000
     22       3.2914      2.00000
     23       3.4940      2.00000
     24       3.5316      2.00000
     25       3.5316      2.00000
     26       3.6559      2.00000
     27       3.6822      2.00000
     28       3.6824      2.00000
     29       3.8438      2.00000
     30       3.8440      2.00000
     31       3.8573      2.00000
     32       3.9384      2.00000
     33       3.9488      2.00000
     34       3.9864      2.00000
     35       4.2009      2.00000
     36       4.2010      2.00000
     37       4.2672      2.00000
     38       4.2885      2.00000
     39       4.3775      2.00000
     40       4.3777      2.00000
     41       4.6054      2.00000
     42       4.7125      2.00000
     43       4.8419      2.00000
     44       4.8419      2.00000
     45       4.8428      2.00000
     46       4.8428      2.00000
     47       4.8503      2.00000
     48       4.8503      2.00000
     49       4.8506      2.00000
     50       4.8506      2.00000
     51       5.1280      2.00000
     52       5.1289      2.00000
     53       5.2537      2.00000
     54       5.2538      2.00000
     55       5.2546      2.00000
     56       5.2554      2.00000
     57       6.0731      2.00000
     58       6.2373      2.00000
     59       6.6204      2.00000
     60       6.6216      2.00000
     61       6.7325      2.00000
     62       6.7549      2.00000
     63       6.7558      2.00000
     64       6.8742      2.00000
     65       6.8753      2.00000
     66       7.0812      2.00000
     67       7.0812      2.00000
     68       7.2210      2.00000
     69       7.3986      2.00001
     70       7.3990      2.00001
     71       7.7146      2.02452
     72       8.1035      0.85663
     73       8.8386      0.00000
     74       8.8389      0.00000
     75       9.3222      0.00000
     76       9.3235      0.00000
     77       9.5188      0.00000
     78       9.5197      0.00000
     79       9.7610      0.00000
     80      10.6300      0.00000
     81      11.0365      0.00000
     82      11.0375      0.00000
     83      11.4095      0.00000
     84      12.1273      0.00000

 k-point   2 :       0.1111    0.0000    0.0000
  band No.  band energies     occupation 
      1      -2.6585      2.00000
      2      -0.7302      2.00000
      3      -0.7300      2.00000
      4      -0.5541      2.00000
      5      -0.5534      2.00000
      6       1.1359      2.00000
      7       1.2055      2.00000
      8       1.3114      2.00000
      9       1.3123      2.00000
     10       1.9851      2.00000
     11       2.6330      2.00000
     12       2.6333      2.00000
     13       2.7715      2.00000
     14       2.9240      2.00000
     15       2.9242      2.00000
     16       3.0219      2.00000
     17       3.1221      2.00000
     18       3.1222      2.00000
     19       3.2796      2.00000
     20       3.2798      2.00000
     21       3.3208      2.00000
     22       3.3209      2.00000
     23       3.4210      2.00000
     24       3.4213      2.00000
     25       3.5528      2.00000
     26       3.5529      2.00000
     27       3.6832      2.00000
     28       3.8585      2.00000
     29       3.8588      2.00000
     30       3.8697      2.00000
     31       3.9040      2.00000
     32       3.9128      2.00000
     33       3.9497      2.00000
     34       4.0333      2.00000
     35       4.1816      2.00000
     36       4.1817      2.00000
     37       4.2543      2.00000
     38       4.2780      2.00000
     39       4.3322      2.00000
     40       4.3324      2.00000
     41       4.5689      2.00000
     42       4.6320      2.00000
     43       4.6323      2.00000
     44       4.7274      2.00000
     45       4.7465      2.00000
     46       4.7466      2.00000
     47       4.7974      2.00000
     48       4.7974      2.00000
     49       4.8277      2.00000
     50       4.8278      2.00000
     51       4.8626      2.00000
     52       4.8633      2.00000
     53       5.0132      2.00000
     54       5.0132      2.00000
     55       5.3937      2.00000
     56       5.3944      2.00000
     57       6.1285      2.00000
     58       6.2090      2.00000
     59       6.4952      2.00000
     60       6.4961      2.00000
     61       6.5276      2.00000
     62       6.6755      2.00000
     63       6.7820      2.00000
     64       6.7831      2.00000
     65       6.9202      2.00000
     66       6.9209      2.00000
     67       7.4600      2.00009
     68       7.6500      2.00849
     69       7.6504      2.00855
     70       7.9955      1.68901
     71       7.9959      1.68651
     72       8.8951      0.00000
     73       8.8954      0.00000
     74       9.1514      0.00000
     75       9.3696      0.00000
     76       9.3710      0.00000
     77      10.0696      0.00000
     78      10.0706      0.00000
     79      10.1130      0.00000
     80      10.4172      0.00000
     81      10.4180      0.00000
     82      10.4255      0.00000
     83      10.6506      0.00000
     84      11.8390      0.00000

 k-point   3 :       0.2222    0.0000    0.0000
  band No.  band energies     occupation 
      1      -2.4221      2.00000
      2      -0.4907      2.00000
      3      -0.4905      2.00000
      4      -0.3439      2.00000
      5      -0.3432      2.00000
      6       0.9701      2.00000
      7       1.3387      2.00000
      8       1.4709      2.00000
      9       1.4840      2.00000
     10       1.4849      2.00000
     11       2.2641      2.00000
     12       2.2645      2.00000
     13       2.7324      2.00000
     14       2.7326      2.00000
     15       2.8567      2.00000
     16       2.8569      2.00000
     17       2.8781      2.00000
     18       3.1881      2.00000
     19       3.2607      2.00000
     20       3.2607      2.00000
     21       3.3559      2.00000
     22       3.3560      2.00000
     23       3.4070      2.00000
     24       3.4071      2.00000
     25       3.6135      2.00000
     26       3.6136      2.00000
     27       3.6386      2.00000
     28       3.7655      2.00000
     29       3.8117      2.00000
     30       3.9009      2.00000
     31       3.9012      2.00000
     32       3.9050      2.00000
     33       3.9795      2.00000
     34       4.1277      2.00000
     35       4.1277      2.00000
     36       4.2187      2.00000
     37       4.2477      2.00000
     38       4.2508      2.00000
     39       4.2510      2.00000
     40       4.3492      2.00000
     41       4.3495      2.00000
     42       4.3524      2.00000
     43       4.4142      2.00000
     44       4.4146      2.00000
     45       4.4513      2.00000
     46       4.5080      2.00000
     47       4.5081      2.00000
     48       4.6809      2.00000
     49       4.6809      2.00000
     50       4.6964      2.00000
     51       4.6964      2.00000
     52       4.7692      2.00000
     53       4.7921      2.00000
     54       4.7922      2.00000
     55       5.2475      2.00000
     56       5.7640      2.00000
     57       5.7643      2.00000
     58       5.8842      2.00000
     59       5.8843      2.00000
     60       5.9138      2.00000
     61       6.2970      2.00000
     62       7.1945      2.00000
[...]
  band No.  band energies     occupation 
      1      -1.3819      2.00000
      2      -0.9823      2.00000
      3      -0.9823      2.00000
      4      -0.5866      2.00000
      5       0.6272      2.00000
      6       0.9878      2.00000
      7       0.9878      2.00000
      8       1.3343      2.00000
      9       1.9316      2.00000
     10       1.9316      2.00000
     11       2.1572      2.00000
     12       2.3522      2.00000
     13       2.5569      2.00000
     14       2.9256      2.00000
     15       2.9493      2.00000
     16       2.9559      2.00000
     17       2.9559      2.00000
     18       2.9799      2.00000
     19       2.9799      2.00000
     20       3.1432      2.00000
     21       3.5001      2.00000
     22       3.5089      2.00000
     23       3.5303      2.00000
     24       3.5303      2.00000
     25       3.5742      2.00000
     26       3.6022      2.00000
     27       3.6022      2.00000
     28       3.6624      2.00000
     29       3.7944      2.00000
     30       3.8762      2.00000
     31       3.9212      2.00000
     32       3.9212      2.00000
     33       3.9728      2.00000
     34       3.9728      2.00000
     35       4.0098      2.00000
     36       4.0206      2.00000
     37       4.0206      2.00000
     38       4.0261      2.00000
     39       4.0364      2.00000
     40       4.0620      2.00000
     41       4.0757      2.00000
     42       4.0899      2.00000
     43       4.1256      2.00000
     44       4.1256      2.00000
     45       4.3783      2.00000
     46       4.4107      2.00000
     47       4.4107      2.00000
     48       4.4387      2.00000
     49       4.6785      2.00000
     50       4.6785      2.00000
     51       4.7000      2.00000
     52       4.8336      2.00000
     53       4.9457      2.00000
     54       5.2480      2.00000
     55       5.2502      2.00000
     56       5.2502      2.00000
     57       5.3179      2.00000
     58       5.3179      2.00000
     59       5.4078      2.00000
     60       5.8613      2.00000
     61       6.0014      2.00000
     62       6.4749      2.00000
     63       6.6441      2.00000
     64       6.6545      2.00000
     65       6.6545      2.00000
     66       7.4973      2.00023
     67       7.4973      2.00023
     68       8.2264      0.09534
     69       8.3394     -0.07080
     70       9.0481      0.00000
     71       9.0481      0.00000
     72       9.2842      0.00000
     73      10.3284      0.00000
     74      10.3969      0.00000
     75      10.3970      0.00000
     76      10.6263      0.00000
     77      10.7690      0.00000
     78      10.8111      0.00000
     79      10.9134      0.00000
     80      10.9134      0.00000
     81      12.1779      0.00000
     82      12.1779      0.00000
     83      12.1850      0.00000
     84      12.3079      0.00000

 k-point  45 :       0.4444    0.4000    0.4000
  band No.  band energies     occupation 
      1      -0.8475      2.00000
      2      -0.4542      2.00000
      3      -0.4542      2.00000
      4      -0.1729      2.00000
      5      -0.0662      2.00000
      6       0.2090      2.00000
      7       0.2090      2.00000
      8       0.5832      2.00000
      9       2.3119      2.00000
     10       2.3119      2.00000
     11       2.4505      2.00000
     12       2.6884      2.00000
     13       2.6884      2.00000
     14       2.7299      2.00000
     15       2.8013      2.00000
     16       2.8148      2.00000
     17       3.0194      2.00000
     18       3.2835      2.00000
     19       3.2835      2.00000
     20       3.3015      2.00000
     21       3.3169      2.00000
     22       3.5245      2.00000
     23       3.5245      2.00000
     24       3.5375      2.00000
     25       3.7043      2.00000
     26       3.7425      2.00000
     27       3.7956      2.00000
     28       3.7956      2.00000
     29       3.8438      2.00000
     30       3.8438      2.00000
     31       3.8451      2.00000
     32       3.8753      2.00000
     33       3.9336      2.00000
     34       3.9402      2.00000
     35       3.9402      2.00000
     36       3.9543      2.00000
     37       3.9718      2.00000
     38       3.9718      2.00000
     39       3.9726      2.00000
     40       3.9890      2.00000
     41       3.9944      2.00000
     42       3.9958      2.00000
     43       3.9958      2.00000
     44       4.0158      2.00000
     45       4.0979      2.00000
     46       4.1184      2.00000
     47       4.1184      2.00000
     48       4.1366      2.00000
     49       4.7241      2.00000
     50       4.7241      2.00000
     51       4.7781      2.00000
     52       4.9032      2.00000
     53       4.9032      2.00000
     54       4.9851      2.00000
     55       5.0245      2.00000
     56       5.1044      2.00000
     57       5.4022      2.00000
     58       5.4074      2.00000
     59       5.5584      2.00000
     60       5.6039      2.00000
     61       5.6039      2.00000
     62       5.9764      2.00000
     63       6.0521      2.00000
     64       6.0521      2.00000
     65       7.0512      2.00000
     66       7.6250      2.00483
     67       8.0234      1.53451
     68       8.0234      1.53450
     69       8.6309     -0.00090
     70       8.6309     -0.00090
     71       8.9079      0.00000
     72       9.5200      0.00000
     73      10.8670      0.00000
     74      11.2410      0.00000
     75      11.3261      0.00000
     76      11.3261      0.00000
     77      11.3264      0.00000
     78      11.4671      0.00000
     79      11.7240      0.00000
     80      11.7240      0.00000
     81      11.8692      0.00000
     82      11.9272      0.00000
     83      11.9272      0.00000
     84      12.0969      0.00000


--------------------------------------------------------------------------------------------------------


 soft charge-density along one line, spin component           1
         0         1         2         3         4         5         6         7         8         9
 total charge-density along one line
 
 pseudopotential strength for first ion, spin component:           1
 -3.367   0.000   0.000   0.000   0.000  -4.345   0.000   0.000
  0.000  -3.402   0.000   0.000   0.000   0.000  -4.319   0.000
  0.000   0.000  -3.401   0.000  -0.021   0.000   0.000  -4.320
  0.000   0.000   0.000  -3.367   0.000   0.000   0.000   0.000
  0.000   0.000  -0.021   0.000  -3.377   0.000   0.000   0.015
 -4.345   0.000   0.000   0.000   0.000  10.002   0.000   0.000
  0.000  -4.319   0.000   0.000   0.000   0.000   9.981   0.000
  0.000   0.000  -4.320   0.000   0.015   0.000   0.000   9.982
  0.000   0.000   0.000  -4.345   0.000   0.000   0.000   0.000
  0.000   0.000   0.015   0.000  -4.338   0.000   0.000  -0.012
  0.000   0.000   0.002   0.000  -0.003   0.000   0.000  -0.002
  0.000   0.000   0.003   0.000  -0.006   0.000   0.000  -0.004
  0.000   0.000   0.000   0.000   0.000   0.000   0.000   0.000
  0.000   0.000   0.000   0.000   0.000   0.000   0.000   0.000
  0.000   0.000   0.000   0.000   0.000   0.000   0.000   0.000
  0.000   0.000   0.000   0.000   0.000   0.000   0.000   0.000
  0.000   0.000   0.000   0.000   0.000   0.000   0.000   0.000
  0.000   0.000   0.000   0.000   0.000   0.000   0.000   0.000
 total augmentation occupancy for first ion, spin component:           1
  1.919   0.000   0.000   0.000   0.000  -0.021   0.000   0.000   0.000   0.000   0.000   0.000   0.000   0.000   0.000   0.000
  0.000   1.912   0.000   0.000   0.000   0.000  -0.020   0.000   0.000   0.000   0.000   0.000   0.000   0.000   0.000   0.000
  0.000   0.000   1.899   0.000  -0.004   0.000   0.000  -0.010   0.000   0.001   0.002   0.005   0.000   0.000   0.000   0.000
  0.000   0.000   0.000   1.919   0.000   0.000   0.000   0.000  -0.021   0.000   0.000   0.000   0.000   0.000   0.000   0.000
  0.000   0.000  -0.004   0.000   1.904   0.000   0.000   0.001   0.000  -0.011  -0.004  -0.008   0.000   0.000   0.000   0.000
 -0.021   0.000   0.000   0.000   0.000   0.018   0.000   0.000   0.000   0.000   0.000   0.000   0.000   0.000   0.000   0.000
  0.000  -0.020   0.000   0.000   0.000   0.000   0.012   0.000   0.000   0.000   0.000   0.000   0.000   0.000   0.000   0.000
  0.000   0.000  -0.010   0.000   0.001   0.000   0.000   0.014   0.000  -0.003  -0.012   0.001   0.000   0.000   0.000   0.000
  0.000   0.000   0.000  -0.021   0.000   0.000   0.000   0.000   0.018   0.000   0.000   0.000   0.000   0.000   0.000   0.000
  0.000   0.000   0.001   0.000  -0.011   0.000   0.000  -0.003   0.000   0.018   0.020  -0.002   0.000   0.000   0.000   0.000
  0.000   0.000   0.002   0.000  -0.004   0.000   0.000  -0.012   0.000   0.020   1.915  -0.168   0.000   0.000   0.000   0.000
  0.000   0.000   0.005   0.000  -0.008   0.000   0.000   0.001   0.000  -0.002  -0.168   0.025   0.000   0.000   0.000   0.000
  0.000   0.000   0.000   0.000   0.000   0.000   0.000   0.000   0.000   0.000   0.000   0.000   0.305   0.000   0.000  -0.016
  0.000   0.000   0.000   0.000   0.000   0.000   0.000   0.000   0.000   0.000   0.000   0.000   0.000   0.305   0.000   0.000
  0.000   0.000   0.000   0.000   0.000   0.000   0.000   0.000   0.000   0.000   0.000   0.000   0.000   0.000   0.341   0.000
  0.000   0.000   0.000   0.000   0.000   0.000   0.000   0.000   0.000   0.000   0.000   0.000  -0.016   0.000   0.000   0.001
  0.000   0.000   0.000   0.000   0.000   0.000   0.000   0.000   0.000   0.000   0.000   0.000   0.000  -0.016   0.000   0.000
  0.000   0.000   0.000   0.000   0.000   0.000   0.000   0.000   0.000   0.000   0.000   0.000   0.000   0.000  -0.020   0.000


------------------------ aborting loop because EDIFF is reached ----------------------------------------


    CHARGE:  cpu time    0.38: real time    0.37
    FORLOC:  cpu time    0.00: real time    0.01
    FORNL :  cpu time    2.09: real time    2.08
    STRESS:  cpu time    6.45: real time    6.47
    FORCOR:  cpu time    0.04: real time    0.04
    FORHAR:  cpu time    0.02: real time    0.02
    MIXING:  cpu time    0.00: real time    0.00

  FORCE on cell =-STRESS in cart. coord.  units (eV):
  Direction    XX          YY          ZZ          XY          YZ          ZX
  --------------------------------------------------------------------------------------
  Alpha Z   197.18109   197.18109   197.18109
  Ewald    -738.64139 -3354.16466 -3354.18226     0.00000     0.00000     0.00000
  Hartree  3099.25995   919.34088   919.33164     0.00000     0.00000     0.00000
  E(xc)    -651.07320  -651.83386  -651.83380     0.00000     0.00000     0.00000
  Local   -3762.97666  1029.46173  1029.48866     0.00000     0.00000     0.00000
  n-local   149.30975   152.15488   152.15413    -0.46654     0.13033    -0.47053
  augment   748.27653   747.07053   747.07085    -0.00005    -0.00007    -0.00007
  Kinetic   958.57772   960.77013   960.77031    -4.20617     0.06016    -4.20612
  Fock        0.00000     0.00000     0.00000     0.00000     0.00000     0.00000
  -------------------------------------------------------------------------------------
  Total      -0.08622    -0.01928    -0.01940     0.00000     0.00000     0.00000
  in kB      -0.38970    -0.08712    -0.08767     0.00000     0.00000     0.00000
  external pressure =       -0.19 kB  Pullay stress =        0.00 kB


 VOLUME and BASIS-vectors are now :
 -----------------------------------------------------------------------------
  energy-cutoff  :      295.45
  volume of cell :      354.49
      direct lattice vectors                 reciprocal lattice vectors
     4.858860802  0.000000000  0.000000000     0.205809559  0.000000000  0.000000000
     0.000000000  8.541512894  0.000000000     0.000000000  0.117075278  0.000000000
     0.000000000  0.000000000  8.541512834     0.000000000  0.000000000  0.117075279

  length of vectors
     4.858860802  8.541512894  8.541512834     0.205809559  0.117075278  0.117075279


 FORCES acting on ions
    electron-ion (+dipol)            ewald-force                    non-local-force                 convergence-correction
 -----------------------------------------------------------------------------------------------
   -.126E-12 0.899E-12 0.112E-11   -.202E-14 -.320E-13 0.151E-13   0.133E-22 0.260E-17 0.217E-17   0.276E-13 0.545E-13 -.147E-13
   -.408E-12 -.316E-12 0.296E-11   -.176E-14 0.204E-13 -.178E-13   0.334E-23 0.651E-18 0.217E-18   -.181E-13 -.380E-13 -.319E-14
   -.113E-12 0.343E-11 0.385E-11   -.196E-14 0.187E-13 0.302E-13   0.133E-22 0.434E-18 0.130E-17   0.281E-13 -.525E-13 -.817E-13
   -.429E-12 0.833E-12 0.168E-11   -.158E-14 -.391E-13 0.187E-13   0.334E-23 -.455E-17 -.651E-18   -.114E-13 0.568E-13 -.122E-12
   -.414E-12 0.215E-11 0.979E-12   -.229E-13 0.444E-14 0.195E-13   0.265E-22 -.369E-17 0.108E-17   -.798E-14 -.236E-13 -.796E-13
   -.127E-12 0.815E-12 0.310E-11   -.233E-13 -.462E-13 -.266E-14   0.264E-22 -.130E-17 0.651E-18   0.291E-13 0.764E-13 -.125E-12
   -.424E-12 0.405E-11 0.306E-11   -.173E-13 -.515E-13 -.258E-13   0.265E-22 0.499E-17 -.108E-17   0.563E-14 0.651E-13 -.381E-14
   -.128E-12 0.297E-11 0.933E-12   -.156E-13 0.799E-14 -.231E-13   0.264E-22 0.434E-18 -.108E-17   0.394E-13 -.332E-13 -.155E-13
   -.936E-14 -.382E+02 -.944E-06   -.636E-14 0.388E+02 0.999E-14   -.104E-16 -.577E+00 -.217E-18   -.341E-14 -.239E-03 0.356E-13
   -.498E-14 0.382E+02 0.944E-06   0.469E-14 -.388E+02 -.111E-14   0.867E-17 0.577E+00 -.867E-18   -.647E-14 0.239E-03 0.216E-13
   -.605E-14 -.382E+02 -.944E-06   -.809E-14 0.388E+02 0.355E-14   0.254E-20 -.577E+00 -.217E-18   -.691E-14 -.239E-03 -.164E-13
   -.149E-13 0.382E+02 0.944E-06   0.588E-14 -.388E+02 -.260E-13   0.520E-17 0.577E+00 -.867E-18   -.469E-14 0.239E-03 -.284E-13
   0.837E-14 -.382E+02 -.944E-06   -.961E-14 0.388E+02 -.311E-13   -.347E-17 -.577E+00 -.108E-18   0.357E-14 -.239E-03 -.117E-13
   0.401E-14 0.382E+02 0.944E-06   0.548E-14 -.388E+02 -.244E-14   -.174E-17 0.577E+00 0.108E-18   0.676E-14 0.239E-03 -.302E-13
   0.287E-14 -.382E+02 -.944E-06   -.728E-14 0.388E+02 -.151E-13   0.694E-17 -.577E+00 -.108E-18   0.661E-14 -.239E-03 0.358E-13
   0.123E-13 0.382E+02 0.944E-06   0.377E-14 -.388E+02 -.311E-14   -.521E-17 0.577E+00 -.759E-18   0.432E-14 0.239E-03 0.205E-13
   -.185E-15 -.393E-13 0.382E+02   0.115E-13 0.183E-13 -.388E+02   -.949E-17 0.217E-18 0.577E+00   -.743E-14 0.233E-13 0.219E-03
   0.230E-14 -.455E-13 -.382E+02   0.123E-13 0.749E-14 0.388E+02   0.515E-17 -.108E-18 -.577E+00   -.976E-14 0.391E-13 -.219E-03
   -.240E-14 -.143E-13 0.382E+02   0.128E-13 0.185E-13 -.388E+02   0.917E-18 -.217E-18 0.577E+00   -.835E-14 -.431E-13 0.219E-03
   -.899E-14 -.468E-13 -.382E+02   0.114E-13 0.180E-14 0.388E+02   -.525E-17 0.325E-18 -.577E+00   -.592E-14 -.259E-13 -.219E-03
   -.710E-15 -.792E-13 0.382E+02   0.980E-14 0.119E-13 -.388E+02   -.515E-17 0.651E-18 0.577E+00   0.100E-13 0.267E-13 0.219E-03
   0.828E-14 -.410E-13 -.382E+02   0.119E-13 0.892E-14 0.388E+02   0.342E-17 0.000E+00 -.577E+00   0.747E-14 0.383E-13 -.219E-03
   0.117E-13 -.179E-13 0.382E+02   0.120E-13 0.737E-14 -.388E+02   0.178E-17 -.217E-18 0.577E+00   0.579E-14 -.381E-13 0.219E-03
   0.826E-14 -.125E-13 -.382E+02   0.935E-14 0.119E-13 0.388E+02   -.352E-17 0.000E+00 -.577E+00   0.830E-14 -.256E-13 -.219E-03
 -----------------------------------------------------------------------------------------------
   -.216E-11 0.145E-10 0.175E-10   -.684E-14 -.621E-14 -.213E-13   -.121E-16 -.332E-15 0.000E+00   0.922E-13 0.102E-12 -.427E-12
 
 
 POSITION                                       TOTAL-FORCE (eV/Angst)
 -----------------------------------------------------------------------------------
      1.21472      2.13538      2.13538         0.000000      0.000000      0.000000
      3.64415      6.40613      2.13538         0.000000      0.000000      0.000000
      1.21472      6.40613      6.40613         0.000000      0.000000      0.000000
      3.64415      2.13538      6.40613         0.000000      0.000000      0.000000
      3.64415      6.40613      6.40613         0.000000      0.000000      0.000000
      1.21472      2.13538      6.40613         0.000000      0.000000      0.000000
      3.64415      2.13538      2.13538         0.000000      0.000000      0.000000
      1.21472      6.40613      2.13538         0.000000      0.000000      0.000000
      0.00000      2.91712      0.00000         0.000000     -0.002488      0.000000
      0.00000      5.62440      0.00000         0.000000      0.002488      0.000000
      0.00000      7.18787      4.27076         0.000000     -0.002488      0.000000
      0.00000      1.35364      4.27076         0.000000      0.002488      0.000000
      2.42943      2.91712      4.27076         0.000000     -0.002488      0.000000
      2.42943      5.62440      4.27076         0.000000      0.002488      0.000000
      2.42943      7.18787      0.00000         0.000000     -0.002488      0.000000
      2.42943      1.35364      0.00000         0.000000      0.002488      0.000000
      0.00000      0.00000      1.35365         0.000000      0.000000      0.002440
      0.00000      0.00000      7.18786         0.000000      0.000000     -0.002440
      0.00000      4.27076      5.62441         0.000000      0.000000      0.002440
      0.00000      4.27076      2.91711         0.000000      0.000000     -0.002440
      2.42943      0.00000      5.62441         0.000000      0.000000      0.002440
      2.42943      0.00000      2.91711         0.000000      0.000000     -0.002440
      2.42943      4.27076      1.35365         0.000000      0.000000      0.002440
      2.42943      4.27076      7.18786         0.000000      0.000000     -0.002440
 -----------------------------------------------------------------------------------
    total drift:                                0.000000      0.000000      0.000000


--------------------------------------------------------------------------------------------------------



  FREE ENERGIE OF THE ION-ELECTRON SYSTEM (eV)
  ---------------------------------------------------
  free  energy   TOTEN  =       -93.397927 eV

  energy  without entropy=      -93.385812  energy(sigma->0) =      -93.393889
 
 d Force = 0.8718318E-06[ 0.139E-05, 0.352E-06]  d Energy =-0.7453053E-04 0.754E-04
 d Force =-0.2182323E-01[-0.218E-01,-0.218E-01]  d Ewald  =-0.1979651E+01 0.196E+01


--------------------------------------------------------------------------------------------------------


    POTLOK:  cpu time    0.05: real time    0.05


--------------------------------------------------------------------------------------------------------




--------------------------------------------------------------------------------------------------------


     LOOP+:  cpu time   53.64: real time   53.80
    4ORBIT:  cpu time    0.00: real time    0.00

 total amount of memory used by VASP on root node   105535. kBytes
========================================================================

   base      :      30000. kBytes
   nonlr-proj:       3035. kBytes
   fftplans  :       1894. kBytes
   grid      :       4008. kBytes
   one-center:        373. kBytes
   wavefun   :      66225. kBytes
 
  
  
 General timing and accounting informations for this job:
 ========================================================
  
                  Total CPU time used (sec):      637.730
                            User time (sec):      636.010
                          System time (sec):        1.720
                         Elapsed time (sec):      639.613
  
                   Maximum memory used (kb):      237464.
                   Average memory used (kb):           0.
  
                          Minor page faults:        78542
                          Major page faults:            0
                 Voluntary context switches:         1426
