 vasp.5.2.12 11Nov11 complex                                                    
  
 executed on             LinuxIFC date 2014.05.30  10:35:55
 running on    4 nodes
 distr:  one band on    1 nodes,    4 groups


--------------------------------------------------------------------------------------------------------


 INCAR:
 POTCAR:    PAW_PBE Cu 22Jun2005                  
 POTCAR:    PAW_PBE Al 04Jan2001                  
 POTCAR:    PAW_PBE Cu 22Jun2005                  
   VRHFIN =Cu: d10 p1                                                           
   LEXCH  = PE                                                                  
   EATOM  =  1390.9808 eV,  102.2342 Ry                                         
                                                                                
   TITEL  = PAW_PBE Cu 22Jun2005                                                
   LULTRA =        F    use ultrasoft PP ?                                      
   IUNSCR =        1    unscreen: 0-lin 1-nonlin 2-no                           
   RPACOR =    2.000    partial core radius                                     
   POMASS =   63.546; ZVAL   =   11.000    mass and valenz                      
   RCORE  =    2.300    outmost cutoff radius                                   
   RWIGS  =    2.200; RWIGS  =    1.164    wigner-seitz radius (au A)           
   ENMAX  =  295.446; ENMIN  =  221.585 eV                                      
   ICORE  =        3    local potential                                         
   LCOR   =        T    correct aug charges                                     
   LPAW   =        T    paw PP                                                  
   EAUG   =  586.980                                                            
   DEXC   =    0.000                                                            
   RMAX   =    2.344    core radius for proj-oper                               
   RAUG   =    1.300    factor for augmentation sphere                          
   RDEP   =    2.302    radius for radial grids                                 
   RDEPT  =    1.771    core radius for aug-charge                              
                                                                                
   Atomic configuration                                                         
    9 entries                                                                   
     n  l   j            E        occ.                                          
     1  0  0.50     -8850.2468   2.0000                                         
     2  0  0.50     -1062.3498   2.0000                                         
     2  1  1.50      -916.8226   6.0000                                         
     3  0  0.50      -114.6929   2.0000                                         
     3  1  1.50       -72.1325   6.0000                                         
     3  2  2.50        -5.0394  10.0000                                         
     4  0  0.50        -4.6097   1.0000                                         
     4  1  0.50        -4.0817   0.0000                                         
     4  3  2.50        -1.3606   0.0000                                         
   Description                                                                  
     l       E           TYP  RCUT    TYP  RCUT                                 
     2     -5.0393973     23  2.200                                             
     2     10.8846608     23  2.200                                             
     0     -4.6097109     23  2.200                                             
     0      8.2520465     23  2.200                                             
     1     -2.7211652     23  2.200                                             
     1     21.7055443     23  2.200                                             
     3      2.7211652     23  2.300                                             
  local pseudopotential read in
  partial core-charges read in
  partial kinetic energy density read in
  atomic valenz-charges read in
  non local Contribution for L=           2  read in
    real space projection operators read in
  non local Contribution for L=           2  read in
    real space projection operators read in
  non local Contribution for L=           0  read in
    real space projection operators read in
  non local Contribution for L=           0  read in
    real space projection operators read in
  non local Contribution for L=           1  read in
    real space projection operators read in
  non local Contribution for L=           1  read in
    real space projection operators read in
    PAW grid and wavefunctions read in
 
   number of l-projection  operators is LMAX  =           6
   number of lm-projection operators is LMMAX =          18
 
 POTCAR:    PAW_PBE Al 04Jan2001                  
   VRHFIN =Al: s2p1                                                             
   LEXCH  = PE                                                                  
   EATOM  =    53.5387 eV,    3.9350 Ry                                         
                                                                                
   TITEL  = PAW_PBE Al 04Jan2001                                                
   LULTRA =        F    use ultrasoft PP ?                                      
   IUNSCR =        1    unscreen: 0-lin 1-nonlin 2-no                           
   RPACOR =    1.500    partial core radius                                     
   POMASS =   26.981; ZVAL   =    3.000    mass and valenz                      
   RCORE  =    1.900    outmost cutoff radius                                   
   RWIGS  =    2.650; RWIGS  =    1.402    wigner-seitz radius (au A)           
   ENMAX  =  240.300; ENMIN  =  180.225 eV                                      
   ICORE  =        2    local potential                                         
   LCOR   =        T    correct aug charges                                     
   LPAW   =        T    paw PP                                                  
   EAUG   =  291.052                                                            
   DEXC   =    0.000                                                            
   RMAX   =    1.939    core radius for proj-oper                               
   RAUG   =    1.300    factor for augmentation sphere                          
   RDEP   =    1.966    radius for radial grids                                 
   RDEPT  =    1.856    core radius for aug-charge                              
                                                                                
   Atomic configuration                                                         
    6 entries                                                                   
     n  l   j            E        occ.                                          
     1  0  0.50     -1511.1048   2.0000                                         
     2  0  0.50      -108.1629   2.0000                                         
     2  1  1.50       -69.6402   6.0000                                         
     3  0  0.50        -7.7528   2.0000                                         
     3  1  1.50        -2.7121   1.0000                                         
     3  2  2.50        -2.7212   0.0000                                         
   Description                                                                  
     l       E           TYP  RCUT    TYP  RCUT                                 
     0     -7.7528455     23  1.900                                             
     0     -3.3096929     23  1.900                                             
     1     -2.7120682     23  1.900                                             
     1     13.6058260     23  1.900                                             
     2     -2.7211652      7  1.900                                             
  local pseudopotential read in
  partial core-charges read in
  partial kinetic energy density read in
  atomic valenz-charges read in
  non local Contribution for L=           0  read in
    real space projection operators read in
  non local Contribution for L=           0  read in
    real space projection operators read in
  non local Contribution for L=           1  read in
    real space projection operators read in
  non local Contribution for L=           1  read in
    real space projection operators read in
    PAW grid and wavefunctions read in
 
   number of l-projection  operators is LMAX  =           4
   number of lm-projection operators is LMMAX =           8
 
 Optimization of the real space projectors (new method)

 maximal supplied QI-value         = 16.25
 optimisation between [QCUT,QGAM] = [  8.78, 17.55] = [ 21.57, 86.27] Ry 
 Optimized for a Real-space Cutoff    1.61 Angstroem

   l    n(q)    QCUT    max X(q) W(low)/X(q) W(high)/X(q)  e(spline) 
   2      7     8.776     4.610    0.19E-03    0.29E-03    0.29E-06
   2      7     8.776     8.522    0.28E-03    0.56E-03    0.43E-06
   0      8     8.776    51.609    0.51E-04    0.19E-03    0.66E-07
   0      8     8.776    27.747    0.45E-04    0.18E-03    0.64E-07
   1      8     8.776    20.408    0.41E-03    0.31E-03    0.23E-06
   1      8     8.776    13.425    0.36E-03    0.28E-03    0.21E-06
 Optimization of the real space projectors (new method)

 maximal supplied QI-value         = 19.84
 optimisation between [QCUT,QGAM] = [  8.73, 17.46] = [ 21.34, 85.38] Ry 
 Optimized for a Real-space Cutoff    1.43 Angstroem

   l    n(q)    QCUT    max X(q) W(low)/X(q) W(high)/X(q)  e(spline) 
   0      7     8.731   176.870    0.24E-03    0.42E-04    0.12E-06
   0      7     8.731   105.762    0.23E-03    0.40E-04    0.11E-06
   1      7     8.731    55.370    0.23E-03    0.67E-03    0.12E-06
   1      7     8.731    20.208    0.21E-03    0.61E-03    0.12E-06
  PAW_PBE Cu 22Jun2005                  :
 energy of atom  1       EATOM=-1390.9808
 kinetic energy error for atom=    0.0452 (will be added to EATOM!!)
  PAW_PBE Al 04Jan2001                  :
 energy of atom  2       EATOM=  -53.5387
 kinetic energy error for atom=    0.0012 (will be added to EATOM!!)
 
 
 POSCAR: XYZ: Cu36Al16                           
  positions in direct lattice
  velocities in cartesian coordinates
 exchange correlation table for  LEXCH =        8
   RHO(1)=    0.500       N(1)  =     2000
   RHO(2)=  100.500       N(2)  =     4000
 


--------------------------------------------------------------------------------------------------------


 ion  position               nearest neighbor table
   1  0.830  0.830  0.830-  27 2.50  29 2.50  32 2.50  41 2.58  49 2.58  50 2.58  38 2.59  39 2.59
                            40 2.59  14 2.64  15 2.64  18 2.64
   2  0.830  0.170  0.170-  28 2.50  30 2.50  33 2.50  42 2.58  48 2.58  52 2.58  37 2.59  39 2.59
                            40 2.59  15 2.64  16 2.64  17 2.64
   3  0.170  0.170  0.830-  25 2.50  35 2.50  36 2.50  43 2.58  46 2.58  47 2.58  37 2.59  38 2.59
                            40 2.59  13 2.64  16 2.64  18 2.64
   4  0.170  0.830  0.170-  26 2.50  31 2.50  34 2.50  44 2.58  45 2.58  51 2.58  37 2.59  38 2.59
                            39 2.59  13 2.64  14 2.64  17 2.64
   5  0.325  0.325  0.325-  43 2.46  45 2.46  48 2.46  25 2.56  33 2.56  34 2.56  11 2.58  10 2.58
                            12 2.58  20 2.66  21 2.66  24 2.66  37 3.08
   6  0.325  0.675  0.675-  44 2.46  46 2.46  49 2.46  26 2.56  32 2.56  36 2.56  12 2.58  11 2.58
                             9 2.58  21 2.66  22 2.66  23 2.66  38 3.08
   7  0.675  0.675  0.325-  41 2.46  51 2.46  52 2.46  27 2.56  30 2.56  31 2.56   9 2.58  10 2.58
                            12 2.58  19 2.66  22 2.66  24 2.66  39 3.08
   8  0.675  0.325  0.675-  42 2.46  47 2.46  50 2.46  28 2.56  29 2.56  35 2.56  10 2.58   9 2.58
                            11 2.58  19 2.66  20 2.66  23 2.66  40 3.08
   9  0.606  0.606  0.606-  19 2.52  22 2.52  23 2.52   7 2.58   8 2.58   6 2.58  41 2.58  49 2.58
                            50 2.58  10 2.60  11 2.60  12 2.60
  10  0.606  0.394  0.394-  19 2.52  20 2.52  24 2.52   8 2.58   5 2.58   7 2.58  42 2.58  48 2.58
                            52 2.58   9 2.60  11 2.60  12 2.60
  11  0.394  0.394  0.606-  20 2.52  21 2.52  23 2.52   5 2.58   8 2.58   6 2.58  43 2.58  46 2.58
                            47 2.58   9 2.60  10 2.60  12 2.60
  12  0.394  0.606  0.394-  21 2.52  22 2.52  24 2.52   6 2.58   7 2.58   5 2.58  44 2.58  45 2.58
                            51 2.58   9 2.60  10 2.60  11 2.60
  13  0.356  0.000  0.000-  15 2.50  47 2.52  51 2.52  37 2.52  38 2.52   4 2.64   3 2.64  25 2.78
                            26 2.78  34 2.78  36 2.78  49 2.80  48 2.80
  14  0.000  0.644  0.000-  16 2.50  45 2.52  50 2.52  38 2.52  39 2.52   4 2.64   1 2.64  26 2.78
                            27 2.78  31 2.78  32 2.78  46 2.80  52 2.80
  15  0.644  0.000  0.000-  13 2.50  48 2.52  49 2.52  39 2.52  40 2.52   2 2.64   1 2.64  27 2.78
                            28 2.78  29 2.78  30 2.78  47 2.80  51 2.80
  16  0.000  0.356  0.000-  14 2.50  46 2.52  52 2.52  37 2.52  40 2.52   3 2.64   2 2.64  25 2.78
                            28 2.78  33 2.78  35 2.78  50 2.80  45 2.80
  17  0.000  0.000  0.356-  18 2.50  42 2.52  44 2.52  37 2.52  39 2.52   4 2.64   2 2.64  30 2.78
                            31 2.78  33 2.78  34 2.78  43 2.80  41 2.80
  18  0.000  0.000  0.644-  17 2.50  41 2.52  43 2.52  38 2.52  40 2.52   3 2.64   1 2.64  29 2.78
                            32 2.78  35 2.78  36 2.78  42 2.80  44 2.80
  19  0.855  0.500  0.500-  31 2.47  35 2.47  21 2.51  10 2.52   9 2.52   8 2.66   7 2.66  33 2.73
                            32 2.73  41 2.73  42 2.73  50 2.73  52 2.73
  20  0.500  0.145  0.500-  29 2.47  34 2.47  22 2.51  11 2.52  10 2.52   8 2.66   5 2.66  30 2.73
                            36 2.73  42 2.73  43 2.73  47 2.73  48 2.73
  21  0.145  0.500  0.500-  32 2.47  33 2.47  19 2.51  12 2.52  11 2.52   6 2.66   5 2.66  31 2.73
                            35 2.73  43 2.73  44 2.73  45 2.73  46 2.73
  22  0.500  0.855  0.500-  30 2.47  36 2.47  20 2.51  12 2.52   9 2.52   7 2.66   6 2.66  34 2.73
                            29 2.73  41 2.73  44 2.73  49 2.73  51 2.73
  23  0.500  0.500  0.855-  26 2.47  28 2.47  24 2.51  11 2.52   9 2.52   8 2.66   6 2.66  27 2.73
                            25 2.73  46 2.73  47 2.73  49 2.73  50 2.73
  24  0.500  0.500  0.145-  25 2.47  27 2.47  23 2.51  12 2.52  10 2.52   7 2.66   5 2.66  26 2.73
                            28 2.73  45 2.73  48 2.73  51 2.73  52 2.73
  25  0.316  0.316  0.031-  24 2.47   3 2.50  37 2.52   5 2.56  46 2.56  47 2.56  45 2.59  48 2.59
                            23 2.73  16 2.78  13 2.78
  26  0.316  0.684  0.969-  23 2.47   4 2.50  38 2.52   6 2.56  45 2.56  51 2.56  49 2.59  46 2.59
                            24 2.73  14 2.78  13 2.78
  27  0.684  0.684  0.031-  24 2.47   1 2.50  39 2.52   7 2.56  49 2.56  50 2.56  51 2.59  52 2.59
                            23 2.73  15 2.78  14 2.78
  28  0.684  0.316  0.969-  23 2.47   2 2.50  40 2.52   8 2.56  48 2.56  52 2.56  50 2.59  47 2.59
                            24 2.73  16 2.78  15 2.78
  29  0.684  0.031  0.684-  20 2.47   1 2.50  40 2.52   8 2.56  41 2.56  49 2.56  47 2.59  42 2.59
                            22 2.73  18 2.78  15 2.78
  30  0.684  0.969  0.316-  22 2.47   2 2.50  39 2.52   7 2.56  42 2.56  48 2.56  41 2.59  51 2.59
                            20 2.73  17 2.78  15 2.78
  31  0.969  0.684  0.316-  19 2.47   4 2.50  39 2.52   7 2.56  44 2.56  45 2.56  41 2.59  52 2.59
                            21 2.73  17 2.78  14 2.78
  32  0.031  0.684  0.684-  21 2.47   1 2.50  38 2.52   6 2.56  41 2.56  50 2.56  46 2.59  44 2.59
                            19 2.73  18 2.78  14 2.78
  33  0.031  0.316  0.316-  21 2.47   2 2.50  37 2.52   5 2.56  42 2.56  52 2.56  45 2.59  43 2.59
                            19 2.73  17 2.78  16 2.78
  34  0.316  0.031  0.316-  20 2.47   4 2.50  37 2.52   5 2.56  44 2.56  51 2.56  48 2.59  43 2.59
                            22 2.73  17 2.78  13 2.78
  35  0.969  0.316  0.684-  19 2.47   3 2.50  40 2.52   8 2.56  43 2.56  46 2.56  42 2.59  50 2.59
                            21 2.73  18 2.78  16 2.78
  36  0.316  0.969  0.684-  22 2.47   3 2.50  38 2.52   6 2.56  43 2.56  47 2.56  44 2.59  49 2.59
                            20 2.73  18 2.78  13 2.78
  37  0.121  0.121  0.121-  25 2.52  33 2.52  34 2.52  13 2.52  16 2.52  17 2.52   2 2.59   3 2.59
                             4 2.59  38 2.96  39 2.96  40 2.96   5 3.08
  38  0.121  0.879  0.879-  26 2.52  32 2.52  36 2.52  13 2.52  14 2.52  18 2.52   1 2.59   3 2.59
                             4 2.59  37 2.96  39 2.96  40 2.96   6 3.08
  39  0.879  0.879  0.121-  27 2.52  30 2.52  31 2.52  14 2.52  15 2.52  17 2.52   1 2.59   2 2.59
                             4 2.59  37 2.96  38 2.96  40 2.96   7 3.08
  40  0.879  0.121  0.879-  28 2.52  29 2.52  35 2.52  15 2.52  16 2.52  18 2.52   1 2.59   2 2.59
                             3 2.59  37 2.96  38 2.96  39 2.96   8 3.08
  41  0.810  0.810  0.534-   7 2.46  18 2.52  29 2.56  32 2.56   9 2.58   1 2.58  31 2.59  30 2.59
                            19 2.73  22 2.73  17 2.80  42 3.35  44 3.35
  42  0.810  0.190  0.466-   8 2.46  17 2.52  30 2.56  33 2.56  10 2.58   2 2.58  29 2.59  35 2.59
                            19 2.73  20 2.73  18 2.80  41 3.35  43 3.35
  43  0.190  0.190  0.534-   5 2.46  18 2.52  35 2.56  36 2.56  11 2.58   3 2.58  33 2.59  34 2.59
                            20 2.73  21 2.73  17 2.80  42 3.35  44 3.35
  44  0.190  0.810  0.466-   6 2.46  17 2.52  31 2.56  34 2.56  12 2.58   4 2.58  32 2.59  36 2.59
                            21 2.73  22 2.73  18 2.80  41 3.35  43 3.35
  45  0.190  0.534  0.190-   5 2.46  14 2.52  26 2.56  31 2.56  12 2.58   4 2.58  25 2.59  33 2.59
                            21 2.73  24 2.73  16 2.80  46 3.35  52 3.35
  46  0.190  0.466  0.810-   6 2.46  16 2.52  25 2.56  35 2.56  11 2.58   3 2.58  32 2.59  26 2.59
                            21 2.73  23 2.73  14 2.80  45 3.35  50 3.35
  47  0.466  0.190  0.810-   8 2.46  13 2.52  25 2.56  36 2.56  11 2.58   3 2.58  29 2.59  28 2.59
                            20 2.73  23 2.73  15 2.80  48 3.35  49 3.35
  48  0.534  0.190  0.190-   5 2.46  15 2.52  28 2.56  30 2.56  10 2.58   2 2.58  25 2.59  34 2.59
                            20 2.73  24 2.73  13 2.80  47 3.35  51 3.35
  49  0.534  0.810  0.810-   6 2.46  15 2.52  27 2.56  29 2.56   9 2.58   1 2.58  26 2.59  36 2.59
                            22 2.73  23 2.73  13 2.80  47 3.35  51 3.35
  50  0.810  0.534  0.810-   8 2.46  14 2.52  27 2.56  32 2.56   9 2.58   1 2.58  28 2.59  35 2.59
                            19 2.73  23 2.73  16 2.80  46 3.35  52 3.35
  51  0.466  0.810  0.190-   7 2.46  13 2.52  26 2.56  34 2.56  12 2.58   4 2.58  30 2.59  27 2.59
                            22 2.73  24 2.73  15 2.80  48 3.35  49 3.35
  52  0.810  0.466  0.190-   7 2.46  16 2.52  28 2.56  33 2.56  10 2.58   2 2.58  31 2.59  27 2.59
                            19 2.73  24 2.73  14 2.80  45 3.35  50 3.35
 
  LATTYP: Found a simple cubic cell.
 ALAT       =     8.6789690760
  
  Lattice vectors:
  
 A1 = (   8.6789690760,   0.0000000000,   0.0000000000)
 A2 = (   0.0000000000,   8.6789690760,   0.0000000000)
 A3 = (   0.0000000000,   0.0000000000,   8.6789690760)
 Subroutine PRICEL returns:
 Original cell was already a primitive cell.
 

Analysis of symmetry for initial positions (statically):

 Routine SETGRP: Setting up the symmetry group for a 
 simple cubic supercell.


 Subroutine GETGRP returns: Found 24 space group operations
 (whereof 24 operations were pure point group operations)
 out of a pool of 48 trial point group operations.


The static configuration has the point symmetry T_d .

Analysis of symmetry for dynamics (positions and initial velocities):

 Subroutine DYNSYM returns: Found 24 space group operations
 (whereof 24 operations were pure point group operations)
 out of a pool of 24 trial space group operations
 (whereof 24 operations were pure point group operations)
 and found also     1 'primitive' translations


The dynamic configuration has the point symmetry T_d .
 
 
 KPOINTS: Automatic mesh                          

Automatic generation of k-mesh.
 
 Subroutine IBZKPT returns following result:
 ===========================================
 
 Found     10 irreducible k-points:
 
 Following reciprocal coordinates:
            Coordinates               Weight
  0.000000  0.000000  0.000000      1.000000
  0.200000  0.000000  0.000000      6.000000
  0.400000  0.000000  0.000000      6.000000
  0.200000  0.200000  0.000000     12.000000
  0.400000  0.200000  0.000000     24.000000
  0.400000  0.400000  0.000000     12.000000
  0.200000  0.200000  0.200000      8.000000
  0.400000  0.200000  0.200000     24.000000
  0.400000  0.400000  0.200000     24.000000
  0.400000  0.400000  0.400000      8.000000
 
 Following cartesian coordinates:
            Coordinates               Weight
  0.000000  0.000000  0.000000      1.000000
  0.023044  0.000000  0.000000      6.000000
  0.046088  0.000000  0.000000      6.000000
  0.023044  0.023044  0.000000     12.000000
  0.046088  0.023044  0.000000     24.000000
  0.046088  0.046088  0.000000     12.000000
  0.023044  0.023044  0.023044      8.000000
  0.046088  0.023044  0.023044     24.000000
  0.046088  0.046088  0.023044     24.000000
  0.046088  0.046088  0.046088      8.000000
 


--------------------------------------------------------------------------------------------------------




 Dimension of arrays:
   k-points           NKPTS =     10   k-points in BZ     NKDIM =     10   number of bands    NBANDS=    268
   number of dos      NEDOS =    301   number of ions     NIONS =     52
   non local maximal  LDIM  =      6   non local SUM 2l+1 LMDIM =     18
   total plane-waves  NPLWV =  46656
   max r-space proj   IRMAX =   1289   max aug-charges    IRDMAX=   2977
   dimension x,y,z NGX =    36 NGY =   36 NGZ =   36
   dimension x,y,z NGXF=    72 NGYF=   72 NGZF=   72
   support grid    NGXF=    72 NGYF=   72 NGZF=   72
   ions per type =              36  16
 NGX,Y,Z   is equivalent  to a cutoff of   6.90,  6.90,  6.90 a.u.
 NGXF,Y,Z  is equivalent  to a cutoff of  13.79, 13.79, 13.79 a.u.


 I would recommend the setting:
   dimension x,y,z NGX =    36 NGY =   36 NGZ =   36
 SYSTEM =  Al16Cu36                                
 POSCAR =  XYZ: Cu36Al16                           

 Startparameter for this run:
   NWRITE =      2    write-flag & timer
   PREC   = normal    normal or accurate (medium, high low for compatibility)
   ISTART =      0    job   : 0-new  1-cont  2-samecut
   ICHARG =      2    charge: 1-file 2-atom 10-const
   ISPIN  =      1    spin polarized calculation?
   LNONCOLLINEAR =      F non collinear calculations
   LSORBIT =      F    spin-orbit coupling
   INIWAV =      1    electr: 0-lowe 1-rand  2-diag
   LASPH  =      F    aspherical Exc in radial PAW
   METAGGA=      F    non-selfconsistent MetaGGA calc.

 Electronic Relaxation 1
   ENCUT  =  295.4 eV  21.71 Ry    4.66 a.u.  12.16 12.16 12.16*2*pi/ulx,y,z
   ENINI  =  295.4     initial cutoff
   ENAUG  =  587.0 eV  augmentation charge cutoff
   NELM   =     40;   NELMIN=  2; NELMDL=  0     # of ELM steps 
   EDIFF  = 0.1E-05   stopping-criterion for ELM
   LREAL  =      T    real-space projection
   NLSPLINE    = F    spline interpolate recip. space projectors
   LCOMPAT=      F    compatible to vasp.4.4
   GGA_COMPAT  = T    GGA compatible to vasp.4.4-vasp.4.6
   LMAXPAW     = -100 max onsite density
   LMAXMIX     =    2 max onsite mixed and CHGCAR
   VOSKOWN=      0    Vosko Wilk Nusair interpolation
   ROPT   =   -0.00050  -0.00050
 Ionic relaxation
   EDIFFG = 0.1E-04   stopping-criterion for IOM
   NSW    =     10    number of steps for IOM
   NBLOCK =      1;   KBLOCK =     10    inner block; outer block 
   IBRION =      2    ionic relax: 0-MD 1-quasi-New 2-CG
   NFREE  =      1    steps in history (QN), initial steepest desc. (CG)
   ISIF   =      3    stress and relaxation
   IWAVPR =     11    prediction:  0-non 1-charg 2-wave 3-comb
   ISYM   =      2    0-nonsym 1-usesym 2-fastsym
   LCORR  =      T    Harris-Foulkes like correction to forces

   POTIM  = 0.2500    time-step for ionic-motion
   TEIN   =    0.0    initial temperature
   TEBEG  =    0.0;   TEEND  =   0.0 temperature during run
   SMASS  =  -3.00    Nose mass-parameter (am)
   estimated Nose-frequenzy (Omega)   =  0.10E-29 period in steps =****** mass=  -0.172E-26a.u.
   SCALEE = 1.0000    scale energy and forces
   NPACO  =    256;   APACO  = 16.0  distance and # of slots for P.C.
   PSTRESS=    0.0 pullay stress

  Mass of Ions in am
   POMASS =  63.55 26.98
  Ionic Valenz
   ZVAL   =  11.00  3.00
  Atomic Wigner-Seitz radii
   RWIGS  =  -1.00 -1.00
  virtual crystal weights 
   VCA    =   1.00  1.00
   NELECT =     444.0000    total number of electrons
   NUPDOWN=      -1.0000    fix difference up-down

 DOS related values:
   EMIN   =  10.00;   EMAX   =-10.00  energy-range for DOS
   EFERMI =   0.00
   ISMEAR =     1;   SIGMA  =   0.20  broadening in eV -4-tet -1-fermi 0-gaus

 Electronic relaxation 2 (details)
   IALGO  =     68    algorithm
   LDIAG  =      T    sub-space diagonalisation (order eigenvalues)
   LSUBROT=      T    optimize rotation matrix (better conditioning)
   TURBO    =      0    0=normal 1=particle mesh
   IRESTART =      0    0=no restart 2=restart with 2 vectors
   NREBOOT  =      0    no. of reboots
   NMIN     =      0    reboot dimension
   EREF     =   0.00    reference energy to select bands
   IMIX   =      4    mixing-type and parameters
     AMIX     =   0.40;   BMIX     =  1.00
     AMIX_MAG =   1.60;   BMIX_MAG =  1.00
     AMIN     =   0.10
     WC   =   100.;   INIMIX=   1;  MIXPRE=   1

 Intra band minimization:
   WEIMIN = 0.0010     energy-eigenvalue tresh-hold
   EBREAK =  0.93E-09  absolut break condition
   DEPER  =   0.30     relativ break condition  

   TIME   =   0.40     timestep for ELM

  volume/ion in A,a.u.               =      12.57        84.84
  Fermi-wavevector in a.u.,A,eV,Ry     =   1.439023  2.719359 28.174763  2.070787
  Thomas-Fermi vector in A             =   2.557925
 
 Write flags
   LWAVE  =      F    write WAVECAR
   LCHARG =      F    write CHGCAR
   LVTOT  =      F    write LOCPOT, total local potential
   LVHAR  =      F    write LOCPOT, Hartree potential only
   LELF   =      F    write electronic localiz. function (ELF)
   LORBIT =      0    0 simple, 1 ext, 2 COOP (PROOUT)


 Dipole corrections
   LMONO  =      F    monopole corrections only (constant potential shift)
   LDIPOL =      F    correct potential (dipole corrections)
   IDIPOL =      0    1-x, 2-y, 3-z, 4-all directions 
   EPSILON=  1.0000000 bulk dielectric constant

 Exchange correlation treatment:
   GGA     =    --    GGA type
   LEXCH   =     8    internal setting for exchange type
   VOSKOWN=      0    Vosko Wilk Nusair interpolation
   LHFCALC =     F    Hartree Fock is set to
   LHFONE  =     F    Hartree Fock one center treatment
   AEXX    =    0.0000 exact exchange contribution

 Linear response parameters
   LEPSILON=     F    determine dielectric tensor
   LRPA    =     F    only Hartree local field effects (RPA)
   LNABLA  =     F    use nabla operator in PAW spheres
   LVEL    =     F    velocity operator in full k-point grid
   LINTERFAST=   F  fast interpolation
   KINTER  =     0    interpolate to denser k-point grid
   CSHIFT  =0.1000    complex shift for real part using Kramers Kronig
   OMEGAMAX=  -1.0    maximum frequency
   RTIME   =    0.100 relaxation time in fs

 Orbital magnetization related:
   ORBITALMAG=     F  switch on orbital magnetization
   LCHIMAG   =     F  perturbation theory with respect to B field
   DQ        =  0.001000  dq finite difference perturbation B field



--------------------------------------------------------------------------------------------------------


 conjugate gradient relaxation of ions
 charge density and potential will be updated during run
 non-spin polarized calculation
 RMM-DIIS sequential band-by-band and
  variant of blocked Davidson during initial phase
 perform sub-space diagonalisation
    before iterative eigenvector-optimisation
 modified Broyden-mixing scheme, WC =      100.0
 initial mixing is a Kerker type mixing with AMIX =  0.4000 and BMIX =      1.0000
 Hartree-type preconditioning will be used
 using additional bands           46
 real space projection scheme for non local part
 use partial core corrections
 calculate Harris-corrections to forces 
   (improved forces if not selfconsistent)
 use gradient corrections 
 use of overlap-Matrix (Vanderbilt PP)
 Methfessel and Paxton  Order N= 1 SIGMA  =   0.20


--------------------------------------------------------------------------------------------------------


  energy-cutoff  :      295.45
  volume of cell :      653.74
      direct lattice vectors                 reciprocal lattice vectors
     8.678969076  0.000000000  0.000000000     0.115221058  0.000000000  0.000000000
     0.000000000  8.678969076  0.000000000     0.000000000  0.115221058  0.000000000
     0.000000000  0.000000000  8.678969076     0.000000000  0.000000000  0.115221058

  length of vectors
     8.678969076  8.678969076  8.678969076     0.115221058  0.115221058  0.115221058


 
 k-points in units of 2pi/SCALE and weight: Automatic mesh                          
   0.00000000  0.00000000  0.00000000       0.008
   0.02304421  0.00000000  0.00000000       0.048
   0.04608842  0.00000000  0.00000000       0.048
   0.02304421  0.02304421  0.00000000       0.096
   0.04608842  0.02304421  0.00000000       0.192
   0.04608842  0.04608842  0.00000000       0.096
   0.02304421  0.02304421  0.02304421       0.064
   0.04608842  0.02304421  0.02304421       0.192
   0.04608842  0.04608842  0.02304421       0.192
   0.04608842  0.04608842  0.04608842       0.064
 
 k-points in reciprocal lattice and weights: Automatic mesh                          
   0.00000000  0.00000000  0.00000000       0.008
   0.20000000  0.00000000  0.00000000       0.048
   0.40000000  0.00000000  0.00000000       0.048
   0.20000000  0.20000000  0.00000000       0.096
   0.40000000  0.20000000  0.00000000       0.192
   0.40000000  0.40000000  0.00000000       0.096
   0.20000000  0.20000000  0.20000000       0.064
   0.40000000  0.20000000  0.20000000       0.192
   0.40000000  0.40000000  0.20000000       0.192
   0.40000000  0.40000000  0.40000000       0.064
 
 position of ions in fractional coordinates (direct lattice) 
   0.83035767  0.83035767  0.83035767
   0.83035767  0.16964233  0.16964233
   0.16964233  0.16964233  0.83035767
   0.16964233  0.83035767  0.16964233
   0.32528258  0.32528258  0.32528258
   0.32528258  0.67471742  0.67471742
   0.67471742  0.67471742  0.32528258
   0.67471742  0.32528258  0.67471742
   0.60597522  0.60597522  0.60597522
   0.60597522  0.39402478  0.39402478
   0.39402478  0.39402478  0.60597522
   0.39402478  0.60597522  0.39402478
   0.35574627  0.00000000  0.00000000
   0.00000000  0.64425373  0.00000000
   0.64425373  0.00000000  0.00000000
   0.00000000  0.35574627  0.00000000
   0.00000000  0.00000000  0.35574627
   0.00000000  0.00000000  0.64425373
   0.85522167  0.50000000  0.50000000
   0.50000000  0.14477833  0.50000000
   0.14477833  0.50000000  0.50000000
   0.50000000  0.85522167  0.50000000
   0.50000000  0.50000000  0.85522167
   0.50000000  0.50000000  0.14477833
   0.31583004  0.31583004  0.03102680
   0.31583004  0.68416996  0.96897320
   0.68416996  0.68416996  0.03102680
   0.68416996  0.31583004  0.96897320
   0.68416996  0.03102680  0.68416996
   0.68416996  0.96897320  0.31583004
   0.96897320  0.68416996  0.31583004
   0.03102680  0.68416996  0.68416996
   0.03102680  0.31583004  0.31583004
   0.31583004  0.03102680  0.31583004
   0.96897320  0.31583004  0.68416996
   0.31583004  0.96897320  0.68416996
   0.12053486  0.12053486  0.12053486
   0.12053486  0.87946514  0.87946514
   0.87946514  0.87946514  0.12053486
   0.87946514  0.12053486  0.87946514
   0.80988743  0.80988743  0.53440209
   0.80988743  0.19011257  0.46559791
   0.19011257  0.19011257  0.53440209
   0.19011257  0.80988743  0.46559791
   0.19011257  0.53440209  0.19011257
   0.19011257  0.46559791  0.80988743
   0.46559791  0.19011257  0.80988743
   0.53440209  0.19011257  0.19011257
   0.53440209  0.80988743  0.80988743
   0.80988743  0.53440209  0.80988743
   0.46559791  0.80988743  0.19011257
   0.80988743  0.46559791  0.19011257
 
 position of ions in cartesian coordinates  (Angst):
   7.20664856  7.20664856  7.20664856
   7.20664856  1.47232051  1.47232051
   1.47232051  1.47232051  7.20664856
   1.47232051  7.20664856  1.47232051
   2.82311746  2.82311746  2.82311746
   2.82311746  5.85585161  5.85585161
   5.85585161  5.85585161  2.82311746
   5.85585161  2.82311746  5.85585161
   5.25924020  5.25924020  5.25924020
   5.25924020  3.41972887  3.41972887
   3.41972887  3.41972887  5.25924020
   3.41972887  5.25924020  3.41972887
   3.08751087  0.00000000  0.00000000
   0.00000000  5.59145821  0.00000000
   5.59145821  0.00000000  0.00000000
   0.00000000  3.08751087  0.00000000
   0.00000000  0.00000000  3.08751087
   0.00000000  0.00000000  5.59145821
   7.42244239  4.33948454  4.33948454
   4.33948454  1.25652668  4.33948454
   1.25652668  4.33948454  4.33948454
   4.33948454  7.42244239  4.33948454
   4.33948454  4.33948454  7.42244239
   4.33948454  4.33948454  1.25652668
   2.74107911  2.74107911  0.26928067
   2.74107911  5.93788996  8.40968841
   5.93788996  5.93788996  0.26928067
   5.93788996  2.74107911  8.40968841
   5.93788996  0.26928067  5.93788996
   5.93788996  8.40968841  2.74107911
   8.40968841  5.93788996  2.74107911
   0.26928067  5.93788996  5.93788996
   0.26928067  2.74107911  2.74107911
   2.74107911  0.26928067  2.74107911
   8.40968841  2.74107911  5.93788996
   2.74107911  8.40968841  5.93788996
   1.04611832  1.04611832  1.04611832
   1.04611832  7.63285075  7.63285075
   7.63285075  7.63285075  1.04611832
   7.63285075  1.04611832  7.63285075
   7.02898798  7.02898798  4.63805921
   7.02898798  1.64998109  4.04090987
   1.64998109  1.64998109  4.63805921
   1.64998109  7.02898798  4.04090987
   1.64998109  4.63805921  1.64998109
   1.64998109  4.04090987  7.02898798
   4.04090987  1.64998109  7.02898798
   4.63805921  1.64998109  1.64998109
   4.63805921  7.02898798  7.02898798
   7.02898798  4.63805921  7.02898798
   4.04090987  7.02898798  1.64998109
   7.02898798  4.04090987  1.64998109
 


--------------------------------------------------------------------------------------------------------


 k-point  1 :  0.00000.00000.0000  plane waves:    7497
 k-point  2 :  0.20000.00000.0000  plane waves:    7500
 k-point  3 :  0.40000.00000.0000  plane waves:    7540
 k-point  4 :  0.20000.20000.0000  plane waves:    7511
 k-point  5 :  0.40000.20000.0000  plane waves:    7538
 k-point  6 :  0.40000.40000.0000  plane waves:    7556
 k-point  7 :  0.20000.20000.2000  plane waves:    7547
 k-point  8 :  0.40000.20000.2000  plane waves:    7515
 k-point  9 :  0.40000.40000.2000  plane waves:    7543
 k-point 10 :  0.40000.40000.4000  plane waves:    7535

 maximum and minimum number of plane-waves per node :      7556     7497

 maximum number of plane-waves:      7556
 maximum index in each direction: 
   IXMAX=   12   IYMAX=   12   IZMAX=   12
   IXMIN=  -12   IYMIN=  -12   IZMIN=  -12

 WARNING: aliasing errors must be expected set NGX to  50 to avoid them
 WARNING: aliasing errors must be expected set NGY to  50 to avoid them
 WARNING: aliasing errors must be expected set NGZ to  50 to avoid them
 aliasing errors are usually negligible using standard VASP settings
 and one can safely disregard these warnings

 serial   3D FFT for wavefunctions
 parallel 3D FFT for charge:
    minimum data exchange during FFTs selected (reduces bandwidth)


 total amount of memory used by VASP on root node   139713. kBytes
========================================================================

   base      :      30000. kBytes
   nonlr-proj:       8962. kBytes
   fftplans  :       3408. kBytes
   grid      :       7216. kBytes
   one-center:        808. kBytes
   wavefun   :      89319. kBytes
 
 Broyden mixing: mesh for mixing (old mesh)
   NGX = 25   NGY = 25   NGZ = 25
  (NGX  = 72   NGY  = 72   NGZ  = 72)
  gives a total of  15625 points

 initial charge density was supplied:
 charge density of overlapping atoms calculated
 number of electron     444.0000000 magnetization 
 keeping initial charge density in first step


--------------------------------------------------------------------------------------------------------


 Maximum index for non-local projection operator         1217
 Maximum index for augmentation-charges          682 (set IRDMAX)


--------------------------------------------------------------------------------------------------------


 First call to EWALD:  gamma=   0.204
 Maximum number of real-space cells 3x 3x 3
 Maximum number of reciprocal cells 3x 3x 3

    FEWALD:  cpu time    0.02: real time    0.02


----------------------------------------- Iteration    1(   1)  ---------------------------------------


    POTLOK:  cpu time    0.06: real time    0.06
    SETDIJ:  cpu time    0.03: real time    0.03
     EDDAV:  cpu time   18.96: real time   19.02
       DOS:  cpu time    0.00: real time    0.00
    --------------------------------------------
      LOOP:  cpu time   19.06: real time   19.12

 eigenvalue-minimisations  :  5368
 total energy-change (2. order) : 0.3622151E+04  (-0.1193719E+05)
 number of electron     444.0000000 magnetization 
 augmentation part      444.0000000 magnetization 

 Free energy of the ion-electron system (eV)
  ---------------------------------------------------
  alpha Z        PSCENC =      1613.38453299
  Ewald energy   TEWEN  =    -36336.73830147
  -1/2 Hartree   DENC   =    -17333.93721295
  -exchange  EXHF       =         0.00000000
  -V(xc)+E(xc)   XCENC  =      1236.72047049
  PAW double counting   =     45274.64226963   -48573.67474865
  entropy T*S    EENTRO =         0.03403129
  eigenvalues    EBANDS =      6811.43809986
  atomic energy  EATOM  =     50930.28182037
  ---------------------------------------------------
  free energy    TOTEN  =      3622.15096157 eV

  energy without entropy =     3622.11693028  energy(sigma->0) =     3622.13961780


--------------------------------------------------------------------------------------------------------




----------------------------------------- Iteration    1(   2)  ---------------------------------------


     EDDAV:  cpu time   19.35: real time   19.41
       DOS:  cpu time    0.00: real time    0.00
    --------------------------------------------
      LOOP:  cpu time   19.36: real time   19.42

 eigenvalue-minimisations  :  5360
 total energy-change (2. order) :-0.3301945E+04  (-0.3205642E+04)
 number of electron     444.0000000 magnetization 
 augmentation part      444.0000000 magnetization 

 Free energy of the ion-electron system (eV)
  ---------------------------------------------------
  alpha Z        PSCENC =      1613.38453299
  Ewald energy   TEWEN  =    -36336.73830147
  -1/2 Hartree   DENC   =    -17333.93721295
  -exchange  EXHF       =         0.00000000
  -V(xc)+E(xc)   XCENC  =      1236.72047049
  PAW double counting   =     45274.64226963   -48573.67474865
  entropy T*S    EENTRO =         0.01215599
  eigenvalues    EBANDS =      3509.51467349
  atomic energy  EATOM  =     50930.28182037
  ---------------------------------------------------
  free energy    TOTEN  =       320.20565989 eV

  energy without entropy =      320.19350390  energy(sigma->0) =      320.20160790


--------------------------------------------------------------------------------------------------------




----------------------------------------- Iteration    1(   3)  ---------------------------------------


     EDDAV:  cpu time   18.48: real time   18.54
       DOS:  cpu time    0.01: real time    0.00
    --------------------------------------------
      LOOP:  cpu time   18.50: real time   18.55

 eigenvalue-minimisations  :  5360
 total energy-change (2. order) :-0.5429789E+03  (-0.4855776E+03)
 number of electron     444.0000000 magnetization 
 augmentation part      444.0000000 magnetization 

 Free energy of the ion-electron system (eV)
  ---------------------------------------------------
  alpha Z        PSCENC =      1613.38453299
  Ewald energy   TEWEN  =    -36336.73830147
  -1/2 Hartree   DENC   =    -17333.93721295
  -exchange  EXHF       =         0.00000000
  -V(xc)+E(xc)   XCENC  =      1236.72047049
  PAW double counting   =     45274.64226963   -48573.67474865
  entropy T*S    EENTRO =        -0.01150366
  eigenvalues    EBANDS =      2966.55946619
  atomic energy  EATOM  =     50930.28182037
  ---------------------------------------------------
  free energy    TOTEN  =      -222.77320705 eV

  energy without entropy =     -222.76170339  energy(sigma->0) =     -222.76937250


--------------------------------------------------------------------------------------------------------




----------------------------------------- Iteration    1(   4)  ---------------------------------------


     EDDAV:  cpu time   22.44: real time   22.50
       DOS:  cpu time    0.00: real time    0.00
    --------------------------------------------
      LOOP:  cpu time   22.44: real time   22.51

 eigenvalue-minimisations  :  6776
 total energy-change (2. order) :-0.3359782E+02  (-0.3242091E+02)
 number of electron     444.0000000 magnetization 
 augmentation part      444.0000000 magnetization 

 Free energy of the ion-electron system (eV)
  ---------------------------------------------------
  alpha Z        PSCENC =      1613.38453299
  Ewald energy   TEWEN  =    -36336.73830147
  -1/2 Hartree   DENC   =    -17333.93721295
  -exchange  EXHF       =         0.00000000
  -V(xc)+E(xc)   XCENC  =      1236.72047049
  PAW double counting   =     45274.64226963   -48573.67474865
  entropy T*S    EENTRO =        -0.00661386
  eigenvalues    EBANDS =      2932.95675534
  atomic energy  EATOM  =     50930.28182037
  ---------------------------------------------------
  free energy    TOTEN  =      -256.37102811 eV

  energy without entropy =     -256.36441424  energy(sigma->0) =     -256.36882349


--------------------------------------------------------------------------------------------------------




----------------------------------------- Iteration    1(   5)  ---------------------------------------


     EDDAV:  cpu time   27.02: real time   27.10
       DOS:  cpu time    0.01: real time    0.00
    CHARGE:  cpu time    0.48: real time    0.49
    MIXING:  cpu time    0.01: real time    0.00
    --------------------------------------------
      LOOP:  cpu time   27.53: real time   27.60

 eigenvalue-minimisations  :  8208
 total energy-change (2. order) :-0.1005530E+01  (-0.9991764E+00)
 number of electron     444.0000791 magnetization 
 augmentation part      224.9811416 magnetization 

 Broyden mixing:
  rms(total) = 0.60658E+01    rms(broyden)= 0.60654E+01
  rms(prec ) = 0.83100E+01
  weight for this iteration     100.00

 Free energy of the ion-electron system (eV)
  ---------------------------------------------------
  alpha Z        PSCENC =      1613.38453299
  Ewald energy   TEWEN  =    -36336.73830147
  -1/2 Hartree   DENC   =    -17333.93721295
  -exchange  EXHF       =         0.00000000
  -V(xc)+E(xc)   XCENC  =      1236.72047049
  PAW double counting   =     45274.64226963   -48573.67474865
  entropy T*S    EENTRO =        -0.00588578
  eigenvalues    EBANDS =      2931.95049741
  atomic energy  EATOM  =     50930.28182037
  ---------------------------------------------------
  free energy    TOTEN  =      -257.37655794 eV

  energy without entropy =     -257.37067217  energy(sigma->0) =     -257.37459602


--------------------------------------------------------------------------------------------------------




----------------------------------------- Iteration    1(   6)  ---------------------------------------


    POTLOK:  cpu time    0.06: real time    0.07
    SETDIJ:  cpu time    0.03: real time    0.03
    EDDIAG:  cpu time    3.48: real time    3.49
  RMM-DIIS:  cpu time    6.36: real time    6.38
    ORTHCH:  cpu time    1.42: real time    1.42
       DOS:  cpu time    0.00: real time    0.00
    CHARGE:  cpu time    0.49: real time    0.48
    MIXING:  cpu time    0.00: real time    0.00
    --------------------------------------------
      LOOP:  cpu time   11.84: real time   11.88

 eigenvalue-minimisations  :  5360
 total energy-change (2. order) : 0.7296410E+01  (-0.8875228E+02)
 number of electron     444.0000937 magnetization 
 augmentation part      270.2082358 magnetization 

 Broyden mixing:
  rms(total) = 0.41847E+01    rms(broyden)= 0.41836E+01
  rms(prec ) = 0.55878E+01
  weight for this iteration     100.00

 eigenvalues of (default mixing * dielectric matrix)
  average eigenvalue GAMMA=   0.5928
  0.5928

 Free energy of the ion-electron system (eV)
  ---------------------------------------------------
  alpha Z        PSCENC =      1613.38453299
  Ewald energy   TEWEN  =    -36336.73830147
  -1/2 Hartree   DENC   =    -15825.41372806
  -exchange  EXHF       =         0.00000000
  -V(xc)+E(xc)   XCENC  =      1171.03561586
  PAW double counting   =     46098.36287796   -49101.46413827
  entropy T*S    EENTRO =        -0.01199789
  eigenvalues    EBANDS =      1200.48317100
  atomic energy  EATOM  =     50930.28182037
  ---------------------------------------------------
  free energy    TOTEN  =      -250.08014751 eV

  energy without entropy =     -250.06814962  energy(sigma->0) =     -250.07614821


--------------------------------------------------------------------------------------------------------




----------------------------------------- Iteration    1(   7)  ---------------------------------------


    POTLOK:  cpu time    0.07: real time    0.06
    SETDIJ:  cpu time    0.03: real time    0.03
    EDDIAG:  cpu time    3.42: real time    3.44
  RMM-DIIS:  cpu time    6.50: real time    6.52
    ORTHCH:  cpu time    1.43: real time    1.42
       DOS:  cpu time    0.00: real time    0.00
    CHARGE:  cpu time    0.49: real time    0.50
    MIXING:  cpu time    0.00: real time    0.00
    --------------------------------------------
      LOOP:  cpu time   11.94: real time   11.98

 eigenvalue-minimisations  :  5374
 total energy-change (2. order) : 0.4463063E+02  (-0.1759889E+02)
 number of electron     444.0000916 magnetization 
 augmentation part      251.8616255 magnetization 

 Broyden mixing:
  rms(total) = 0.40551E+00    rms(broyden)= 0.40464E+00
  rms(prec ) = 0.57024E+00
  weight for this iteration     100.00

 eigenvalues of (default mixing * dielectric matrix)
  average eigenvalue GAMMA=   0.9692
  0.5996  1.3388

 Free energy of the ion-electron system (eV)
  ---------------------------------------------------
  alpha Z        PSCENC =      1613.38453299
  Ewald energy   TEWEN  =    -36336.73830147
  -1/2 Hartree   DENC   =    -16400.44768700
  -exchange  EXHF       =         0.00000000
  -V(xc)+E(xc)   XCENC  =      1196.98293684
  PAW double counting   =     47786.18205868   -51047.35509560
  entropy T*S    EENTRO =        -0.01977937
  eigenvalues    EBANDS =      2052.27999527
  atomic energy  EATOM  =     50930.28182037
  ---------------------------------------------------
  free energy    TOTEN  =      -205.44951930 eV

  energy without entropy =     -205.42973993  energy(sigma->0) =     -205.44292618


--------------------------------------------------------------------------------------------------------




----------------------------------------- Iteration    1(   8)  ---------------------------------------


    POTLOK:  cpu time    0.07: real time    0.07
    SETDIJ:  cpu time    0.02: real time    0.03
    EDDIAG:  cpu time    3.42: real time    3.43
  RMM-DIIS:  cpu time    6.66: real time    6.68
    ORTHCH:  cpu time    1.44: real time    1.44
       DOS:  cpu time    0.01: real time    0.00
    CHARGE:  cpu time    0.50: real time    0.50
    MIXING:  cpu time    0.00: real time    0.00
    --------------------------------------------
      LOOP:  cpu time   12.13: real time   12.16

 eigenvalue-minimisations  :  5415
 total energy-change (2. order) : 0.1883435E+00  (-0.5898927E+00)
 number of electron     444.0000884 magnetization 
 augmentation part      249.8624581 magnetization 

 Broyden mixing:
  rms(total) = 0.41554E+00    rms(broyden)= 0.41539E+00
  rms(prec ) = 0.58613E+00
  weight for this iteration     100.00

 eigenvalues of (default mixing * dielectric matrix)
  average eigenvalue GAMMA=   1.0015
  1.9022  0.5512  0.5512

 Free energy of the ion-electron system (eV)
  ---------------------------------------------------
  alpha Z        PSCENC =      1613.38453299
  Ewald energy   TEWEN  =    -36336.73830147
  -1/2 Hartree   DENC   =    -16418.86020744
  -exchange  EXHF       =         0.00000000
  -V(xc)+E(xc)   XCENC  =      1197.46522573
  PAW double counting   =     49267.82352198   -52602.31324731
  entropy T*S    EENTRO =        -0.02077526
  eigenvalues    EBANDS =      2143.71625463
  atomic energy  EATOM  =     50930.28182037
  ---------------------------------------------------
  free energy    TOTEN  =      -205.26117579 eV

  energy without entropy =     -205.24040052  energy(sigma->0) =     -205.25425070


--------------------------------------------------------------------------------------------------------




----------------------------------------- Iteration    1(   9)  ---------------------------------------


    POTLOK:  cpu time    0.07: real time    0.06
    SETDIJ:  cpu time    0.02: real time    0.03
    EDDIAG:  cpu time    3.48: real time    3.49
  RMM-DIIS:  cpu time    6.59: real time    6.61
    ORTHCH:  cpu time    1.44: real time    1.44
       DOS:  cpu time    0.00: real time    0.00
    CHARGE:  cpu time    0.49: real time    0.50
    MIXING:  cpu time    0.01: real time    0.00
    --------------------------------------------
      LOOP:  cpu time   12.10: real time   12.14

 eigenvalue-minimisations  :  5414
 total energy-change (2. order) : 0.1345041E+00  (-0.1053338E+00)
 number of electron     444.0000909 magnetization 
 augmentation part      249.7061167 magnetization 

 Broyden mixing:
  rms(total) = 0.32824E+00    rms(broyden)= 0.32822E+00
  rms(prec ) = 0.45124E+00
  weight for this iteration     100.00

 eigenvalues of (default mixing * dielectric matrix)
  average eigenvalue GAMMA=   1.0233
  2.2194  0.7277  0.7277  0.4186

 Free energy of the ion-electron system (eV)
  ---------------------------------------------------
  alpha Z        PSCENC =      1613.38453299
  Ewald energy   TEWEN  =    -36336.73830147
  -1/2 Hartree   DENC   =    -16386.06370381
  -exchange  EXHF       =         0.00000000
  -V(xc)+E(xc)   XCENC  =      1195.97917251
  PAW double counting   =     50344.89586430   -53716.05035216
  entropy T*S    EENTRO =        -0.02108719
  eigenvalues    EBANDS =      2149.20538282
  atomic energy  EATOM  =     50930.28182037
  ---------------------------------------------------
  free energy    TOTEN  =      -205.12667165 eV

  energy without entropy =     -205.10558445  energy(sigma->0) =     -205.11964258


--------------------------------------------------------------------------------------------------------




----------------------------------------- Iteration    1(  10)  ---------------------------------------


    POTLOK:  cpu time    0.07: real time    0.07
    SETDIJ:  cpu time    0.02: real time    0.03
    EDDIAG:  cpu time    3.49: real time    3.50
  RMM-DIIS:  cpu time    6.86: real time    6.88
    ORTHCH:  cpu time    1.44: real time    1.44
       DOS:  cpu time    0.01: real time    0.00
    CHARGE:  cpu time    0.49: real time    0.50
    MIXING:  cpu time    0.01: real time    0.00
    --------------------------------------------
      LOOP:  cpu time   12.39: real time   12.42

 eigenvalue-minimisations  :  5416
 total energy-change (2. order) : 0.1931903E+00  (-0.4588145E-01)
 number of electron     444.0000905 magnetization 
 augmentation part      250.7823980 magnetization 

 Broyden mixing:
  rms(total) = 0.53796E-01    rms(broyden)= 0.53753E-01
  rms(prec ) = 0.76605E-01
  weight for this iteration     100.00

 eigenvalues of (default mixing * dielectric matrix)
  average eigenvalue GAMMA=   1.0480
  2.2077  0.4247  0.6414  0.9831  0.9831

 Free energy of the ion-electron system (eV)
  ---------------------------------------------------
  alpha Z        PSCENC =      1613.38453299
  Ewald energy   TEWEN  =    -36336.73830147
  -1/2 Hartree   DENC   =    -16336.54045998
  -exchange  EXHF       =         0.00000000
  -V(xc)+E(xc)   XCENC  =      1193.92009848
  PAW double counting   =     50770.04945535   -54144.71817538
  entropy T*S    EENTRO =        -0.01966588
  eigenvalues    EBANDS =      2105.44721414
  atomic energy  EATOM  =     50930.28182037
  ---------------------------------------------------
  free energy    TOTEN  =      -204.93348137 eV

  energy without entropy =     -204.91381550  energy(sigma->0) =     -204.92692608


--------------------------------------------------------------------------------------------------------




----------------------------------------- Iteration    1(  11)  ---------------------------------------


    POTLOK:  cpu time    0.06: real time    0.07
    SETDIJ:  cpu time    0.03: real time    0.03
    EDDIAG:  cpu time    3.48: real time    3.48
  RMM-DIIS:  cpu time    6.82: real time    6.84
    ORTHCH:  cpu time    1.43: real time    1.43
       DOS:  cpu time    0.00: real time    0.00
    CHARGE:  cpu time    0.48: real time    0.49
    MIXING:  cpu time    0.01: real time    0.00
    --------------------------------------------
      LOOP:  cpu time   12.31: real time   12.35

 eigenvalue-minimisations  :  5629
 total energy-change (2. order) : 0.1328792E-02  (-0.4709282E-02)
 number of electron     444.0000904 magnetization 
 augmentation part      250.8803552 magnetization 

 Broyden mixing:
  rms(total) = 0.34449E-01    rms(broyden)= 0.34443E-01
  rms(prec ) = 0.50384E-01
  weight for this iteration     100.00

 eigenvalues of (default mixing * dielectric matrix)
  average eigenvalue GAMMA=   1.1492
  2.2597  2.2597  0.9038  0.6563  0.4106  0.4052

 Free energy of the ion-electron system (eV)
  ---------------------------------------------------
  alpha Z        PSCENC =      1613.38453299
  Ewald energy   TEWEN  =    -36336.73830147
  -1/2 Hartree   DENC   =    -16331.54701971
  -exchange  EXHF       =         0.00000000
  -V(xc)+E(xc)   XCENC  =      1193.80574912
  PAW double counting   =     50823.35559985   -54198.38873145
  entropy T*S    EENTRO =        -0.01990662
  eigenvalues    EBANDS =      2100.93410435
  atomic energy  EATOM  =     50930.28182037
  ---------------------------------------------------
  free energy    TOTEN  =      -204.93215258 eV

  energy without entropy =     -204.91224596  energy(sigma->0) =     -204.92551704


--------------------------------------------------------------------------------------------------------




----------------------------------------- Iteration    1(  12)  ---------------------------------------


    POTLOK:  cpu time    0.06: real time    0.06
    SETDIJ:  cpu time    0.02: real time    0.03
    EDDIAG:  cpu time    3.41: real time    3.42
  RMM-DIIS:  cpu time    7.25: real time    7.26
    ORTHCH:  cpu time    1.42: real time    1.42
       DOS:  cpu time    0.00: real time    0.00
    CHARGE:  cpu time    0.50: real time    0.49
    MIXING:  cpu time    0.00: real time    0.00
    --------------------------------------------
      LOOP:  cpu time   12.67: real time   12.70

 eigenvalue-minimisations  :  6007
 total energy-change (2. order) : 0.1545685E-02  (-0.1285747E-02)
 number of electron     444.0000905 magnetization 
 augmentation part      250.9679810 magnetization 

 Broyden mixing:
  rms(total) = 0.10860E-01    rms(broyden)= 0.10855E-01
  rms(prec ) = 0.12165E-01
  weight for this iteration     100.00

 eigenvalues of (default mixing * dielectric matrix)
  average eigenvalue GAMMA=   1.2116
  2.4615  2.4615  1.0175  1.0175  0.6515  0.4156  0.4563

 Free energy of the ion-electron system (eV)
  ---------------------------------------------------
  alpha Z        PSCENC =      1613.38453299
  Ewald energy   TEWEN  =    -36336.73830147
  -1/2 Hartree   DENC   =    -16328.29757217
  -exchange  EXHF       =         0.00000000
  -V(xc)+E(xc)   XCENC  =      1193.76671264
  PAW double counting   =     50845.96713648   -54220.72321331
  entropy T*S    EENTRO =        -0.01976913
  eigenvalues    EBANDS =      2097.44804670
  atomic energy  EATOM  =     50930.28182037
  ---------------------------------------------------
  free energy    TOTEN  =      -204.93060689 eV

  energy without entropy =     -204.91083777  energy(sigma->0) =     -204.92401718


--------------------------------------------------------------------------------------------------------




----------------------------------------- Iteration    1(  13)  ---------------------------------------


    POTLOK:  cpu time    0.07: real time    0.06
    SETDIJ:  cpu time    0.02: real time    0.03
    EDDIAG:  cpu time    3.36: real time    3.37
  RMM-DIIS:  cpu time    8.16: real time    8.19
    ORTHCH:  cpu time    1.49: real time    1.50
       DOS:  cpu time    0.01: real time    0.00
    CHARGE:  cpu time    0.51: real time    0.51
    MIXING:  cpu time    0.00: real time    0.00
    --------------------------------------------
      LOOP:  cpu time   13.63: real time   13.68

 eigenvalue-minimisations  :  6171
 total energy-change (2. order) :-0.1133219E-03  (-0.1803322E-03)
 number of electron     444.0000905 magnetization 
 augmentation part      250.9757642 magnetization 

 Broyden mixing:
  rms(total) = 0.59605E-02    rms(broyden)= 0.59595E-02
  rms(prec ) = 0.81175E-02
  weight for this iteration     100.00

 eigenvalues of (default mixing * dielectric matrix)
  average eigenvalue GAMMA=   1.1715
  2.5773  2.5773  1.0866  1.0426  0.6463  0.4161  0.4585  0.5676

 Free energy of the ion-electron system (eV)
  ---------------------------------------------------
  alpha Z        PSCENC =      1613.38453299
  Ewald energy   TEWEN  =    -36336.73830147
  -1/2 Hartree   DENC   =    -16328.67408460
  -exchange  EXHF       =         0.00000000
  -V(xc)+E(xc)   XCENC  =      1193.80986117
  PAW double counting   =     50838.69825530   -54212.96565589
  entropy T*S    EENTRO =        -0.01978321
  eigenvalues    EBANDS =      2097.29263513
  atomic energy  EATOM  =     50930.28182037
  ---------------------------------------------------
  free energy    TOTEN  =      -204.93072022 eV

  energy without entropy =     -204.91093701  energy(sigma->0) =     -204.92412581


--------------------------------------------------------------------------------------------------------




----------------------------------------- Iteration    1(  14)  ---------------------------------------


    POTLOK:  cpu time    0.07: real time    0.07
    SETDIJ:  cpu time    0.02: real time    0.03
    EDDIAG:  cpu time    3.65: real time    3.65
  RMM-DIIS:  cpu time    8.13: real time    8.16
    ORTHCH:  cpu time    1.50: real time    1.50
       DOS:  cpu time    0.01: real time    0.00
    CHARGE:  cpu time    0.49: real time    0.51
    MIXING:  cpu time    0.01: real time    0.00
    --------------------------------------------
      LOOP:  cpu time   13.89: real time   13.93

 eigenvalue-minimisations  :  5628
 total energy-change (2. order) : 0.1749938E-04  (-0.3228133E-04)
 number of electron     444.0000905 magnetization 
 augmentation part      250.9767325 magnetization 

 Broyden mixing:
  rms(total) = 0.36790E-02    rms(broyden)= 0.36786E-02
  rms(prec ) = 0.50068E-02
  weight for this iteration     100.00

 eigenvalues of (default mixing * dielectric matrix)
  average eigenvalue GAMMA=   1.2096
  2.8307  2.5064  1.3428  1.3428  0.9073  0.6538  0.4216  0.4296  0.4519

 Free energy of the ion-electron system (eV)
  ---------------------------------------------------
  alpha Z        PSCENC =      1613.38453299
  Ewald energy   TEWEN  =    -36336.73830147
  -1/2 Hartree   DENC   =    -16328.71891543
  -exchange  EXHF       =         0.00000000
  -V(xc)+E(xc)   XCENC  =      1193.81786723
  PAW double counting   =     50837.31976665   -54211.52289965
  entropy T*S    EENTRO =        -0.01975495
  eigenvalues    EBANDS =      2097.26518155
  atomic energy  EATOM  =     50930.28182037
  ---------------------------------------------------
  free energy    TOTEN  =      -204.93070272 eV

  energy without entropy =     -204.91094776  energy(sigma->0) =     -204.92411773


--------------------------------------------------------------------------------------------------------




----------------------------------------- Iteration    1(  15)  ---------------------------------------


    POTLOK:  cpu time    0.06: real time    0.07
    SETDIJ:  cpu time    0.03: real time    0.03
    EDDIAG:  cpu time    3.63: real time    3.64
  RMM-DIIS:  cpu time    7.99: real time    8.02
    ORTHCH:  cpu time    1.50: real time    1.50
       DOS:  cpu time    0.00: real time    0.00
    CHARGE:  cpu time    0.51: real time    0.51
    MIXING:  cpu time    0.00: real time    0.00
    --------------------------------------------
      LOOP:  cpu time   13.73: real time   13.78

 eigenvalue-minimisations  :  5533
 total energy-change (2. order) : 0.8812131E-05  (-0.8710328E-05)
 number of electron     444.0000905 magnetization 
 augmentation part      250.9772500 magnetization 

 Broyden mixing:
  rms(total) = 0.19966E-02    rms(broyden)= 0.19965E-02
  rms(prec ) = 0.28628E-02
  weight for this iteration     100.00

 eigenvalues of (default mixing * dielectric matrix)
  average eigenvalue GAMMA=   1.2878
  3.1684  2.2951  2.0629  1.4706  0.9988  0.9179  0.6528  0.4152  0.4331  0.4629

 Free energy of the ion-electron system (eV)
  ---------------------------------------------------
  alpha Z        PSCENC =      1613.38453299
  Ewald energy   TEWEN  =    -36336.73830147
  -1/2 Hartree   DENC   =    -16328.71664971
  -exchange  EXHF       =         0.00000000
  -V(xc)+E(xc)   XCENC  =      1193.81942925
  PAW double counting   =     50834.76721213   -54208.97779556
  entropy T*S    EENTRO =        -0.01978186
  eigenvalues    EBANDS =      2097.26883996
  atomic energy  EATOM  =     50930.28182037
  ---------------------------------------------------
  free energy    TOTEN  =      -204.93069390 eV

  energy without entropy =     -204.91091204  energy(sigma->0) =     -204.92409995


--------------------------------------------------------------------------------------------------------




----------------------------------------- Iteration    1(  16)  ---------------------------------------


    POTLOK:  cpu time    0.07: real time    0.07
    SETDIJ:  cpu time    0.03: real time    0.03
    EDDIAG:  cpu time    3.58: real time    3.59
  RMM-DIIS:  cpu time    7.01: real time    7.03
    ORTHCH:  cpu time    1.42: real time    1.42
       DOS:  cpu time    0.00: real time    0.00
    CHARGE:  cpu time    0.50: real time    0.50
    MIXING:  cpu time    0.00: real time    0.00
    --------------------------------------------
      LOOP:  cpu time   12.62: real time   12.65

 eigenvalue-minimisations  :  5398
 total energy-change (2. order) : 0.4084730E-05  (-0.5583541E-05)
 number of electron     444.0000905 magnetization 
 augmentation part      250.9695329 magnetization 

 Broyden mixing:
  rms(total) = 0.47940E-03    rms(broyden)= 0.47899E-03
  rms(prec ) = 0.68006E-03
  weight for this iteration     100.00

 eigenvalues of (default mixing * dielectric matrix)
  average eigenvalue GAMMA=   1.2590
  3.1404  2.5338  2.0204  1.2629  1.2629  0.8998  0.7683  0.6516  0.4155  0.4321
  0.4616

 Free energy of the ion-electron system (eV)
  ---------------------------------------------------
  alpha Z        PSCENC =      1613.38453299
  Ewald energy   TEWEN  =    -36336.73830147
  -1/2 Hartree   DENC   =    -16328.98018723
  -exchange  EXHF       =         0.00000000
  -V(xc)+E(xc)   XCENC  =      1193.82562069
  PAW double counting   =     50830.74158803   -54205.07028119
  entropy T*S    EENTRO =        -0.01977759
  eigenvalues    EBANDS =      2097.64429558
  atomic energy  EATOM  =     50930.28182037
  ---------------------------------------------------
  free energy    TOTEN  =      -204.93068982 eV

  energy without entropy =     -204.91091223  energy(sigma->0) =     -204.92409729


--------------------------------------------------------------------------------------------------------




----------------------------------------- Iteration    1(  17)  ---------------------------------------


    POTLOK:  cpu time    0.07: real time    0.06
    SETDIJ:  cpu time    0.03: real time    0.03
    EDDIAG:  cpu time    3.46: real time    3.47
  RMM-DIIS:  cpu time    6.29: real time    6.32
    ORTHCH:  cpu time    1.46: real time    1.45
       DOS:  cpu time    0.00: real time    0.00
    --------------------------------------------
      LOOP:  cpu time   11.31: real time   11.34

 eigenvalue-minimisations  :  4641
 total energy-change (2. order) : 0.7906783E-06  (-0.6604532E-06)
 number of electron     444.0000905 magnetization 
 augmentation part      250.9695329 magnetization 

 Free energy of the ion-electron system (eV)
  ---------------------------------------------------
  alpha Z        PSCENC =      1613.38453299
  Ewald energy   TEWEN  =    -36336.73830147
  -1/2 Hartree   DENC   =    -16329.00528456
  -exchange  EXHF       =         0.00000000
  -V(xc)+E(xc)   XCENC  =      1193.82653350
  PAW double counting   =     50828.76279007   -54203.08293828
  entropy T*S    EENTRO =        -0.01977770
  eigenvalues    EBANDS =      2097.65993605
  atomic energy  EATOM  =     50930.28182037
  ---------------------------------------------------
  free energy    TOTEN  =      -204.93068903 eV

  energy without entropy =     -204.91091133  energy(sigma->0) =     -204.92409646


--------------------------------------------------------------------------------------------------------




 average (electrostatic) potential at core
  the test charge radii are     0.9430  1.0406
  (the norm of the test charge is              1.0000)
       1 -63.7745       2 -63.7745       3 -63.7745       4 -63.7745       5 -63.4578
       6 -63.4578       7 -63.4578       8 -63.4578       9 -63.0436      10 -63.0436
      11 -63.0436      12 -63.0436      13 -63.6430      14 -63.6430      15 -63.6430
      16 -63.6430      17 -63.6430      18 -63.6430      19 -63.1167      20 -63.1167
      21 -63.1167      22 -63.1167      23 -63.1167      24 -63.1167      25 -63.4484
      26 -63.4484      27 -63.4484      28 -63.4484      29 -63.4484      30 -63.4484
      31 -63.4484      32 -63.4484      33 -63.4484      34 -63.4484      35 -63.4484
      36 -63.4484      37 -72.0446      38 -72.0446      39 -72.0446      40 -72.0446
      41 -72.0293      42 -72.0293      43 -72.0293      44 -72.0293      45 -72.0293
      46 -72.0293      47 -72.0293      48 -72.0293      49 -72.0293      50 -72.0293
      51 -72.0293      52 -72.0293
 
 
 
 E-fermi :   8.4472     XC(G=0): -12.0260     alpha+bet :-14.7382


 k-point   1 :       0.0000    0.0000    0.0000
  band No.  band energies     occupation 
      1      -2.1792      2.00000
      2      -0.3291      2.00000
      3      -0.2463      2.00000
      4      -0.2463      2.00000
      5      -0.2463      2.00000
      6      -0.0483      2.00000
      7      -0.0483      2.00000
      8       1.4053      2.00000
      9       1.4053      2.00000
     10       1.4053      2.00000
     11       1.4564      2.00000
     12       1.4564      2.00000
     13       1.4564      2.00000
     14       1.4653      2.00000
     15       1.4653      2.00000
     16       1.4653      2.00000
     17       1.5816      2.00000
     18       1.9846      2.00000
     19       1.9846      2.00000
     20       2.6368      2.00000
     21       2.6368      2.00000
     22       2.6368      2.00000
     23       2.9909      2.00000
     24       3.0107      2.00000
     25       3.0107      2.00000
     26       3.0107      2.00000
     27       3.2310      2.00000
     28       3.2310      2.00000
     29       3.3388      2.00000
     30       3.3388      2.00000
     31       3.3388      2.00000
     32       3.4983      2.00000
     33       3.5679      2.00000
     34       3.5679      2.00000
     35       3.5679      2.00000
     36       3.6209      2.00000
     37       3.6209      2.00000
     38       3.7106      2.00000
     39       3.7106      2.00000
     40       3.7106      2.00000
     41       3.7699      2.00000
     42       3.7699      2.00000
     43       3.7699      2.00000
     44       3.8401      2.00000
     45       3.8780      2.00000
     46       3.8780      2.00000
     47       3.9013      2.00000
     48       3.9013      2.00000
     49       3.9013      2.00000
     50       3.9443      2.00000
     51       3.9443      2.00000
     52       3.9443      2.00000
     53       3.9782      2.00000
     54       4.0874      2.00000
     55       4.1710      2.00000
     56       4.1710      2.00000
     57       4.1710      2.00000
     58       4.1759      2.00000
     59       4.1932      2.00000
     60       4.1932      2.00000
     61       4.2401      2.00000
     62       4.2401      2.00000
     63       4.2424      2.00000
     64       4.2424      2.00000
     65       4.2424      2.00000
     66       4.2889      2.00000
     67       4.2889      2.00000
     68       4.2889      2.00000
     69       4.3087      2.00000
     70       4.3087      2.00000
     71       4.3087      2.00000
     72       4.3776      2.00000
     73       4.3818      2.00000
     74       4.3818      2.00000
     75       4.3818      2.00000
     76       4.4170      2.00000
     77       4.4170      2.00000
     78       4.4170      2.00000
     79       4.4520      2.00000
     80       4.4520      2.00000
     81       4.4874      2.00000
     82       4.4874      2.00000
     83       4.4874      2.00000
     84       4.5170      2.00000
     85       4.5170      2.00000
     86       4.5245      2.00000
     87       4.5245      2.00000
     88       4.5245      2.00000
     89       4.6319      2.00000
     90       4.6508      2.00000
     91       4.6533      2.00000
     92       4.6533      2.00000
     93       4.6533      2.00000
     94       4.6709      2.00000
     95       4.6709      2.00000
     96       4.6709      2.00000
     97       4.6746      2.00000
     98       4.6746      2.00000
     99       4.6746      2.00000
    100       4.7561      2.00000
    101       4.7561      2.00000
    102       4.7684      2.00000
    103       4.7684      2.00000
    104       4.7684      2.00000
    105       4.8166      2.00000
    106       4.8166      2.00000
    107       4.8166      2.00000
    108       4.8543      2.00000
    109       4.8543      2.00000
    110       4.9456      2.00000
    111       4.9456      2.00000
    112       4.9456      2.00000
    113       4.9469      2.00000
    114       4.9469      2.00000
    115       4.9469      2.00000
    116       5.0143      2.00000
    117       5.0143      2.00000
    118       5.0143      2.00000
    119       5.0505      2.00000
    120       5.0505      2.00000
    121       5.0938      2.00000
    122       5.0938      2.00000
    123       5.1481      2.00000
    124       5.1647      2.00000
    125       5.1647      2.00000
    126       5.1647      2.00000
    127       5.1731      2.00000
    128       5.1731      2.00000
    129       5.1731      2.00000
    130       5.2120      2.00000
    131       5.2120      2.00000
    132       5.2120      2.00000
    133       5.2374      2.00000
    134       5.2374      2.00000
    135       5.2374      2.00000
    136       5.2461      2.00000
    137       5.2588      2.00000
    138       5.2588      2.00000
    139       5.2588      2.00000
    140       5.3057      2.00000
    141       5.3057      2.00000
    142       5.3057      2.00000
    143       5.3540      2.00000
    144       5.3540      2.00000
    145       5.3540      2.00000
    146       5.3803      2.00000
    147       5.3803      2.00000
    148       5.3803      2.00000
    149       5.3934      2.00000
    150       5.3934      2.00000
    151       5.4119      2.00000
    152       5.4119      2.00000
    153       5.4119      2.00000
    154       5.4358      2.00000
    155       5.4999      2.00000
    156       5.4999      2.00000
    157       5.4999      2.00000
    158       5.5004      2.00000
    159       5.5004      2.00000
    160       5.5546      2.00000
    161       5.5546      2.00000
    162       5.5546      2.00000
    163       5.5847      2.00000
    164       5.5847      2.00000
    165       5.5912      2.00000
    166       5.5912      2.00000
    167       5.5912      2.00000
    168       5.6002      2.00000
    169       5.6535      2.00000
    170       5.6535      2.00000
    171       5.6535      2.00000
    172       5.6664      2.00000
    173       5.6664      2.00000
    174       5.6664      2.00000
    175       5.6883      2.00000
    176       5.6883      2.00000
    177       5.7906      2.00000
    178       5.8295      2.00000
    179       5.8295      2.00000
    180       5.8295      2.00000
    181       5.8872      2.00000
    182       5.8872      2.00000
    183       5.9371      2.00000
    184       5.9371      2.00000
    185       5.9371      2.00000
    186       6.0189      2.00000
    187       6.0189      2.00000
    188       6.0189      2.00000
    189       6.0531      2.00000
    190       6.0531      2.00000
    191       6.0531      2.00000
    192       6.1581      2.00000
    193       6.1581      2.00000
    194       6.1581      2.00000
    195       6.1655      2.00000
    196       6.1655      2.00000
    197       6.2566      2.00000
    198       6.3090      2.00000
    199       6.3090      2.00000
    200       6.3090      2.00000
    201       6.4999      2.00000
    202       6.4999      2.00000
    203       6.4999      2.00000
    204       6.7516      2.00000
    205       6.7516      2.00000
    206       6.7516      2.00000
    207       6.7910      2.00000
    208       7.2367      2.00000
    209       7.2367      2.00000
    210       7.5041      2.00000
    211       7.5313      2.00000
    212       7.5313      2.00000
    213       7.5313      2.00000
    214       7.6442      2.00000
    215       7.6442      2.00000
    216       7.6442      2.00000
    217       8.1620      2.06157
    218       8.1620      2.06157
    219       8.6917     -0.07091
    220       8.6917     -0.07091
    221       8.6917     -0.07091
    222       8.7885     -0.03655
    223       8.7885     -0.03655
    224       8.7885     -0.03655
    225       8.9274     -0.00356
    226       9.5269      0.00000
    227      10.0029      0.00000
    228      10.0029      0.00000
    229      10.0029      0.00000
    230      10.1628      0.00000
    231      10.1628      0.00000
    232      10.1628      0.00000
    233      10.3085      0.00000
    234      10.3085      0.00000
    235      10.3085      0.00000
    236      10.4745      0.00000
    237      10.4745      0.00000
    238      10.4745      0.00000
    239      10.6311      0.00000
    240      10.6311      0.00000
    241      10.8827      0.00000
    242      10.8827      0.00000
    243      11.0010      0.00000
    244      11.0010      0.00000
    245      11.0247      0.00000
    246      11.0247      0.00000
    247      11.0247      0.00000
    248      11.0434      0.00000
    249      11.0434      0.00000
    250      11.0434      0.00000
    251      11.4018      0.00000
    252      11.6661      0.00000
    253      11.6661      0.00000
    254      11.6661      0.00000
    255      11.8359      0.00000
    256      11.8359      0.00000
    257      11.8359      0.00000
    258      12.8037      0.00000
    259      12.8037      0.00000
    260      12.8038      0.00000
    261      12.8094      0.00000
    262      14.3802      0.00000
    263      14.3825      0.00000
    264      14.3868      0.00000
    265      14.3956      0.00000
    266      14.4445      0.00000
    267      14.4907      0.00000
    268      14.9489      0.00000

 k-point   2 :       0.2000    0.0000    0.0000
  band No.  band energies     occupation 
      1      -2.1016      2.00000
      2      -0.8823      2.00000
      3      -0.1752      2.00000
      4      -0.1741      2.00000
      5      -0.1741      2.00000
      6       0.0191      2.00000
      7       0.5851      2.00000
      8       0.8914      2.00000
      9       0.8914      2.00000
     10       1.0133      2.00000
     11       1.1105      2.00000
     12       1.4981      2.00000
     13       1.4981      2.00000
     14       1.4993      2.00000
     15       1.8456      2.00000
     16       1.9599      2.00000
     17       1.9599      2.00000
     18       2.2297      2.00000
     19       2.3447      2.00000
     20       2.4091      2.00000
     21       2.4631      2.00000
     22       2.4631      2.00000
     23       2.8095      2.00000
     24       2.9740      2.00000
     25       3.1752      2.00000
     26       3.1752      2.00000
     27       3.2148      2.00000
     28       3.2273      2.00000
     29       3.3476      2.00000
     30       3.3476      2.00000
     31       3.4127      2.00000
     32       3.5112      2.00000
     33       3.5344      2.00000
     34       3.5344      2.00000
     35       3.5622      2.00000
     36       3.5951      2.00000
     37       3.6362      2.00000
     38       3.6580      2.00000
     39       3.7245      2.00000
     40       3.7341      2.00000
     41       3.7341      2.00000
     42       3.7906      2.00000
     43       3.7906      2.00000
     44       3.8520      2.00000
     45       3.8615      2.00000
     46       3.9045      2.00000
     47       3.9169      2.00000
     48       3.9169      2.00000
     49       3.9252      2.00000
     50       3.9310      2.00000
     51       3.9310      2.00000
     52       3.9585      2.00000
     53       4.0286      2.00000
     54       4.0932      2.00000
     55       4.1263      2.00000
     56       4.1437      2.00000
     57       4.1437      2.00000
     58       4.1771      2.00000
     59       4.1856      2.00000
     60       4.1864      2.00000
     61       4.1923      2.00000
     62       4.1923      2.00000
     63       4.2256      2.00000
     64       4.2536      2.00000
     65       4.2536      2.00000
     66       4.2739      2.00000
     67       4.2772      2.00000
     68       4.3035      2.00000
     69       4.3176      2.00000
     70       4.3176      2.00000
     71       4.3356      2.00000
     72       4.3633      2.00000
     73       4.3650      2.00000
     74       4.3650      2.00000
     75       4.3975      2.00000
     76       4.4258      2.00000
     77       4.4318      2.00000
     78       4.4318      2.00000
     79       4.4378      2.00000
     80       4.4529      2.00000
     81       4.4813      2.00000
[...]
         0         1         2         3         4         5         6         7         8         9
 total charge-density along one line
 
 pseudopotential strength for first ion, spin component:           1
 -2.980  -0.008   0.013  -0.008   0.000  -4.643   0.006  -0.009
 -0.008  -2.980  -0.006  -0.008   0.011   0.006  -4.643   0.004
  0.013  -0.006  -2.990  -0.006   0.000  -0.009   0.004  -4.636
 -0.008  -0.008  -0.006  -2.980  -0.011   0.006   0.006   0.004
  0.000   0.011   0.000  -0.011  -2.990   0.000  -0.008   0.000
 -4.643   0.006  -0.009   0.006   0.000  10.215  -0.004   0.006
  0.006  -4.643   0.004   0.006  -0.008  -0.004  10.215  -0.003
 -0.009   0.004  -4.636   0.004   0.000   0.006  -0.003  10.211
  0.006   0.006   0.004  -4.643   0.008  -0.004  -0.004  -0.003
  0.000  -0.008   0.000   0.008  -4.636   0.000   0.005   0.000
  0.001   0.001   0.000   0.001   0.000  -0.001  -0.001   0.000
  0.001   0.001   0.000   0.001   0.000  -0.001  -0.001   0.000
  0.000   0.000   0.000   0.001   0.000   0.000   0.000   0.000
  0.001   0.000   0.000   0.000   0.000   0.000   0.000   0.000
  0.000   0.001   0.000   0.000   0.000   0.000   0.000   0.000
  0.000   0.000   0.000   0.001   0.000   0.000   0.000   0.000
  0.001   0.000   0.000   0.000   0.000   0.000   0.000   0.000
  0.000   0.001   0.000   0.000   0.000   0.000   0.000   0.000
 total augmentation occupancy for first ion, spin component:           1
  1.910   0.002   0.000   0.002   0.000  -0.023  -0.001  -0.002  -0.001   0.000   0.011   0.006   0.002   0.011   0.002   0.000
  0.002   1.910   0.000   0.002   0.000  -0.001  -0.023   0.001  -0.001  -0.002   0.011   0.006   0.002   0.002   0.011   0.000
  0.000   0.000   1.911   0.000   0.000  -0.002   0.001  -0.012   0.001   0.000   0.000   0.000   0.000   0.001   0.000   0.000
  0.002   0.002   0.000   1.910   0.000  -0.001  -0.001   0.001  -0.023   0.002   0.011   0.006   0.011   0.002   0.002   0.000
  0.000   0.000   0.000   0.000   1.911   0.000  -0.002   0.000   0.002  -0.012   0.000   0.000  -0.001   0.000   0.001   0.001
 -0.023  -0.001  -0.002  -0.001   0.000   0.017  -0.001   0.001  -0.001   0.000  -0.010   0.000   0.002   0.004   0.002   0.000
 -0.001  -0.023   0.001  -0.001  -0.002  -0.001   0.017   0.000  -0.001   0.001  -0.010   0.000   0.002   0.002   0.004   0.000
 -0.002   0.001  -0.012   0.001   0.000   0.001   0.000   0.017   0.000   0.000   0.000   0.000  -0.001   0.001  -0.001   0.000
 -0.001  -0.001   0.001  -0.023   0.002  -0.001  -0.001   0.000   0.017  -0.001  -0.010   0.000   0.004   0.002   0.002   0.000
  0.000  -0.002   0.000   0.002  -0.012   0.000   0.001   0.000  -0.001   0.017   0.000   0.000  -0.001   0.000   0.001   0.000
  0.011   0.011   0.000   0.011   0.000  -0.010  -0.010   0.000  -0.010   0.000   1.838  -0.184   0.009   0.009   0.009  -0.002
  0.006   0.006   0.000   0.006   0.000   0.000   0.000   0.000   0.000   0.000  -0.184   0.026  -0.002  -0.002  -0.002   0.000
  0.002   0.002   0.000   0.011  -0.001   0.002   0.002  -0.001   0.004  -0.001   0.009  -0.002   0.311  -0.016  -0.016  -0.018
  0.011   0.002   0.001   0.002   0.000   0.004   0.002   0.001   0.002   0.000   0.009  -0.002  -0.016   0.311  -0.016   0.001
  0.002   0.011   0.000   0.002   0.001   0.002   0.004  -0.001   0.002   0.001   0.009  -0.002  -0.016  -0.016   0.311   0.001
  0.000   0.000   0.000   0.000   0.001   0.000   0.000   0.000   0.000   0.000  -0.002   0.000  -0.018   0.001   0.001   0.002
  0.000   0.000  -0.001   0.000   0.000   0.000   0.000   0.000   0.000   0.000  -0.002   0.000   0.001  -0.018   0.001   0.000
  0.000   0.000   0.000   0.000  -0.001   0.000   0.000   0.000   0.000   0.000  -0.002   0.000   0.001   0.001  -0.018   0.000


------------------------ aborting loop because EDIFF is reached ----------------------------------------


    CHARGE:  cpu time    0.53: real time    0.53
    FORLOC:  cpu time    0.03: real time    0.03
    FORNL :  cpu time    4.22: real time    4.23
    STRESS:  cpu time   12.30: real time   12.33
    FORCOR:  cpu time    0.08: real time    0.09
    FORHAR:  cpu time    0.04: real time    0.04
    MIXING:  cpu time    0.01: real time    0.00

  FORCE on cell =-STRESS in cart. coord.  units (eV):
  Direction    XX          YY          ZZ          XY          YZ          ZX
  --------------------------------------------------------------------------------------
  Alpha Z  1613.23278  1613.23278  1613.23278
  Ewald  -12110.00795-12110.00795-12110.00795     0.00000     0.00000     0.00000
  Hartree  5445.03170  5445.03170  5445.03170     0.00000     0.00000     0.00000
  E(xc)   -2456.98380 -2456.98380 -2456.98380     0.00000     0.00000     0.00000
  Local    1047.30200  1047.30200  1047.30200     0.00000     0.00000     0.00000
  n-local  -438.46273  -442.67715  -444.01514     2.58778     1.00465     0.46512
  augment  3408.80684  3408.80687  3408.80691    -0.00018    -0.00015    -0.00019
  Kinetic  3493.50271  3491.50611  3497.20871     6.63129     1.29094     0.48167
  Fock        0.00000     0.00000     0.00000     0.00000     0.00000     0.00000
  -------------------------------------------------------------------------------------
  Total      -0.26424    -0.26424    -0.26424     0.00000     0.00000     0.00000
  in kB      -0.64753    -0.64753    -0.64753     0.00000     0.00000     0.00000
  external pressure =       -0.65 kB  Pullay stress =        0.00 kB


 VOLUME and BASIS-vectors are now :
 -----------------------------------------------------------------------------
  energy-cutoff  :      295.45
  volume of cell :      653.80
      direct lattice vectors                 reciprocal lattice vectors
     8.679241207  0.000000000  0.000000000     0.115217445  0.000000000  0.000000000
     0.000000000  8.679241207  0.000000000     0.000000000  0.115217445  0.000000000
     0.000000000  0.000000000  8.679241207     0.000000000  0.000000000  0.115217445

  length of vectors
     8.679241207  8.679241207  8.679241207     0.115217445  0.115217445  0.115217445


 FORCES acting on ions
    electron-ion (+dipol)            ewald-force                    non-local-force                 convergence-correction
 -----------------------------------------------------------------------------------------------
   -.562E+02 -.562E+02 -.562E+02   0.562E+02 0.562E+02 0.562E+02   -.165E-01 -.165E-01 -.165E-01   -.688E-03 -.688E-03 -.688E-03
   -.562E+02 0.562E+02 0.562E+02   0.562E+02 -.562E+02 -.562E+02   -.165E-01 0.165E-01 0.165E-01   -.688E-03 0.688E-03 0.688E-03
   0.562E+02 0.562E+02 -.562E+02   -.562E+02 -.562E+02 0.562E+02   0.165E-01 0.165E-01 -.165E-01   0.688E-03 0.688E-03 -.688E-03
   0.562E+02 -.562E+02 0.562E+02   -.562E+02 0.562E+02 -.562E+02   0.165E-01 -.165E-01 0.165E-01   0.688E-03 -.688E-03 0.688E-03
   0.167E+03 0.167E+03 0.167E+03   -.166E+03 -.166E+03 -.166E+03   -.580E+00 -.580E+00 -.580E+00   0.108E-02 0.108E-02 0.108E-02
   0.167E+03 -.167E+03 -.167E+03   -.166E+03 0.166E+03 0.166E+03   -.580E+00 0.580E+00 0.580E+00   0.108E-02 -.108E-02 -.108E-02
   -.167E+03 -.167E+03 0.167E+03   0.166E+03 0.166E+03 -.166E+03   0.580E+00 0.580E+00 -.580E+00   -.108E-02 -.108E-02 0.108E-02
   -.167E+03 0.167E+03 -.167E+03   0.166E+03 -.166E+03 0.166E+03   0.580E+00 -.580E+00 0.580E+00   -.108E-02 0.108E-02 -.108E-02
   -.228E+03 -.228E+03 -.228E+03   0.226E+03 0.226E+03 0.226E+03   0.118E+01 0.118E+01 0.118E+01   0.290E-03 0.290E-03 0.290E-03
   -.228E+03 0.228E+03 0.228E+03   0.226E+03 -.226E+03 -.226E+03   0.118E+01 -.118E+01 -.118E+01   0.290E-03 -.290E-03 -.290E-03
   0.228E+03 0.228E+03 -.228E+03   -.226E+03 -.226E+03 0.226E+03   -.118E+01 -.118E+01 0.118E+01   -.290E-03 -.290E-03 0.290E-03
   0.228E+03 -.228E+03 0.228E+03   -.226E+03 0.226E+03 -.226E+03   -.118E+01 0.118E+01 -.118E+01   -.290E-03 0.290E-03 -.290E-03
   0.879E+01 -.254E-14 -.127E-03   -.730E+01 0.205E-14 -.264E-13   -.150E+01 0.173E-17 0.867E-18   -.113E-02 0.932E-12 0.125E-11
   -.888E-13 -.879E+01 0.127E-03   0.444E-14 0.730E+01 -.788E-13   0.518E-17 0.150E+01 -.217E-18   -.114E-11 0.113E-02 -.132E-11
   -.879E+01 -.381E-11 0.127E-03   0.730E+01 -.175E-13 0.527E-13   0.150E+01 -.260E-17 0.645E-17   0.113E-02 0.120E-11 0.574E-11
   0.856E-13 0.879E+01 -.127E-03   0.946E-13 -.730E+01 0.551E-13   0.523E-17 -.150E+01 0.867E-18   -.866E-12 -.113E-02 -.258E-11
   0.966E-13 0.995E-13 0.879E+01   0.110E-12 0.138E-12 -.730E+01   -.348E-17 0.439E-17 -.150E+01   -.738E-12 -.151E-11 -.113E-02
   0.215E-12 0.184E-12 -.879E+01   -.333E-14 0.271E-13 0.730E+01   0.262E-17 0.385E-17 0.150E+01   -.135E-11 -.272E-12 0.113E-02
   -.108E+03 0.226E-11 -.538E-04   0.108E+03 -.842E-13 -.340E-13   -.218E+00 0.864E-18 -.434E-18   -.223E-03 0.212E-11 0.330E-11
   0.102E-11 0.108E+03 0.538E-04   0.273E-13 -.108E+03 0.755E-13   -.605E-20 0.218E+00 0.173E-17   0.109E-11 0.223E-03 -.632E-12
   0.108E+03 0.141E-11 0.538E-04   -.108E+03 -.114E-14 0.662E-13   0.218E+00 0.868E-18 -.108E-17   0.223E-03 0.174E-11 0.126E-11
   0.139E-11 -.108E+03 -.538E-04   -.167E-12 0.108E+03 -.282E-13   -.119E-17 -.218E+00 0.173E-17   0.922E-12 -.223E-03 0.299E-12
   0.266E-11 0.127E-11 -.108E+03   -.120E-12 0.157E-13 0.108E+03   0.756E-18 0.379E-20 -.218E+00   0.172E-11 -.420E-12 -.223E-03
   0.126E-11 0.749E-11 0.108E+03   0.475E-13 0.624E-13 -.108E+03   0.347E-17 0.172E-17 0.218E+00   -.576E-12 0.453E-14 0.223E-03
   0.943E+02 0.943E+02 0.521E+02   -.934E+02 -.934E+02 -.521E+02   -.879E+00 -.879E+00 0.911E-02   0.737E-03 0.737E-03 -.178E-02
   0.943E+02 -.943E+02 -.521E+02   -.934E+02 0.934E+02 0.521E+02   -.879E+00 0.879E+00 -.911E-02   0.737E-03 -.737E-03 0.178E-02
   -.943E+02 -.943E+02 0.521E+02   0.934E+02 0.934E+02 -.521E+02   0.879E+00 0.879E+00 0.911E-02   -.737E-03 -.737E-03 -.178E-02
   -.943E+02 0.943E+02 -.521E+02   0.934E+02 -.934E+02 0.521E+02   0.879E+00 -.879E+00 -.911E-02   -.737E-03 0.737E-03 0.178E-02
   -.943E+02 0.521E+02 -.943E+02   0.934E+02 -.521E+02 0.934E+02   0.879E+00 0.911E-02 0.879E+00   -.737E-03 -.178E-02 -.737E-03
   -.943E+02 -.521E+02 0.943E+02   0.934E+02 0.521E+02 -.934E+02   0.879E+00 -.911E-02 -.879E+00   -.737E-03 0.178E-02 0.737E-03
   -.521E+02 -.943E+02 0.943E+02   0.521E+02 0.934E+02 -.934E+02   -.911E-02 0.879E+00 -.879E+00   0.178E-02 -.737E-03 0.737E-03
   0.521E+02 -.943E+02 -.943E+02   -.521E+02 0.934E+02 0.934E+02   0.911E-02 0.879E+00 0.879E+00   -.178E-02 -.737E-03 -.737E-03
   0.521E+02 0.943E+02 0.943E+02   -.521E+02 -.934E+02 -.934E+02   0.911E-02 -.879E+00 -.879E+00   -.178E-02 0.737E-03 0.737E-03
   0.943E+02 0.521E+02 0.943E+02   -.934E+02 -.521E+02 -.934E+02   -.879E+00 0.911E-02 -.879E+00   0.737E-03 -.178E-02 0.737E-03
   -.521E+02 0.943E+02 -.943E+02   0.521E+02 -.934E+02 0.934E+02   -.911E-02 -.879E+00 0.879E+00   0.178E-02 0.737E-03 -.737E-03
   0.943E+02 -.521E+02 -.943E+02   -.934E+02 0.521E+02 0.934E+02   -.879E+00 -.911E-02 0.879E+00   0.737E-03 0.178E-02 -.737E-03
   0.308E+02 0.308E+02 0.308E+02   -.307E+02 -.307E+02 -.307E+02   -.115E+00 -.115E+00 -.115E+00   -.102E-03 -.102E-03 -.102E-03
   0.308E+02 -.308E+02 -.308E+02   -.307E+02 0.307E+02 0.307E+02   -.115E+00 0.115E+00 0.115E+00   -.102E-03 0.102E-03 0.102E-03
   -.308E+02 -.308E+02 0.308E+02   0.307E+02 0.307E+02 -.307E+02   0.115E+00 0.115E+00 -.115E+00   0.102E-03 0.102E-03 -.102E-03
   -.308E+02 0.308E+02 -.308E+02   0.307E+02 -.307E+02 0.307E+02   0.115E+00 -.115E+00 0.115E+00   0.102E-03 -.102E-03 0.102E-03
   -.341E+02 -.341E+02 -.135E+02   0.335E+02 0.335E+02 0.133E+02   0.523E+00 0.523E+00 0.238E+00   -.263E-03 -.263E-03 0.198E-03
   -.341E+02 0.341E+02 0.135E+02   0.335E+02 -.335E+02 -.133E+02   0.523E+00 -.523E+00 -.238E+00   -.263E-03 0.263E-03 -.198E-03
   0.341E+02 0.341E+02 -.135E+02   -.335E+02 -.335E+02 0.133E+02   -.523E+00 -.523E+00 0.238E+00   0.263E-03 0.263E-03 0.198E-03
   0.341E+02 -.341E+02 0.135E+02   -.335E+02 0.335E+02 -.133E+02   -.523E+00 0.523E+00 -.238E+00   0.263E-03 -.263E-03 -.198E-03
   0.341E+02 -.135E+02 0.341E+02   -.335E+02 0.133E+02 -.335E+02   -.523E+00 0.238E+00 -.523E+00   0.263E-03 0.198E-03 0.263E-03
   0.341E+02 0.135E+02 -.341E+02   -.335E+02 -.133E+02 0.335E+02   -.523E+00 -.238E+00 0.523E+00   0.263E-03 -.198E-03 -.263E-03
   0.135E+02 0.341E+02 -.341E+02   -.133E+02 -.335E+02 0.335E+02   -.238E+00 -.523E+00 0.523E+00   -.198E-03 0.263E-03 -.263E-03
   -.135E+02 0.341E+02 0.341E+02   0.133E+02 -.335E+02 -.335E+02   0.238E+00 -.523E+00 -.523E+00   0.198E-03 0.263E-03 0.263E-03
   -.135E+02 -.341E+02 -.341E+02   0.133E+02 0.335E+02 0.335E+02   0.238E+00 0.523E+00 0.523E+00   0.198E-03 -.263E-03 -.263E-03
   -.341E+02 -.135E+02 -.341E+02   0.335E+02 0.133E+02 0.335E+02   0.523E+00 0.238E+00 0.523E+00   -.263E-03 0.198E-03 -.263E-03
   0.135E+02 -.341E+02 0.341E+02   -.133E+02 0.335E+02 -.335E+02   -.238E+00 0.523E+00 -.523E+00   -.198E-03 -.263E-03 0.263E-03
   -.341E+02 0.135E+02 0.341E+02   0.335E+02 -.133E+02 -.335E+02   0.523E+00 -.238E+00 -.523E+00   -.263E-03 -.198E-03 0.263E-03
 -----------------------------------------------------------------------------------------------
   0.172E-03 0.172E-03 0.808E-05   0.185E-12 0.743E-12 -.213E-12   -.333E-15 -.305E-15 -.111E-15   -.779E-12 -.231E-12 0.210E-12
 
 
 POSITION                                       TOTAL-FORCE (eV/Angst)
 -----------------------------------------------------------------------------------
      7.20660      7.20660      7.20660         0.002965      0.002965      0.002965
      7.20660      1.47265      1.47265         0.002965     -0.002965     -0.002965
      1.47265      1.47265      7.20660        -0.002965     -0.002965      0.002965
      1.47265      7.20660      1.47265        -0.002965      0.002965     -0.002965
      2.82322      2.82322      2.82322        -0.000355     -0.000355     -0.000355
      2.82322      5.85602      5.85602        -0.000355      0.000355      0.000355
      5.85602      5.85602      2.82322         0.000355      0.000355     -0.000355
      5.85602      2.82322      5.85602         0.000355     -0.000355      0.000355
      5.25844      5.25844      5.25844        -0.002127     -0.002127     -0.002127
      5.25844      3.42080      3.42080        -0.002127      0.002127      0.002127
      3.42080      3.42080      5.25844         0.002127      0.002127     -0.002127
      3.42080      5.25844      3.42080         0.002127     -0.002127      0.002127
      3.08914      0.00000      0.00000        -0.000915      0.000000      0.000000
      0.00000      5.59010      0.00000         0.000000      0.000915      0.000000
      5.59010      0.00000      0.00000         0.000915      0.000000      0.000000
      0.00000      3.08914      0.00000         0.000000     -0.000915      0.000000
      0.00000      0.00000      3.08914         0.000000      0.000000     -0.000915
      0.00000      0.00000      5.59010         0.000000      0.000000      0.000915
      7.42245      4.33962      4.33962         0.000506      0.000000      0.000000
      4.33962      1.25679      4.33962         0.000000     -0.000506      0.000000
      1.25679      4.33962      4.33962        -0.000506      0.000000      0.000000
      4.33962      7.42245      4.33962         0.000000      0.000506      0.000000
      4.33962      4.33962      7.42245         0.000000      0.000000      0.000506
      4.33962      4.33962      1.25679         0.000000      0.000000     -0.000506
      2.74112      2.74112      0.27092        -0.000161     -0.000161      0.001182
      2.74112      5.93812      8.40832        -0.000161      0.000161     -0.001182
      5.93812      5.93812      0.27092         0.000161      0.000161      0.001182
      5.93812      2.74112      8.40832         0.000161     -0.000161     -0.001182
      5.93812      0.27092      5.93812         0.000161      0.001182      0.000161
      5.93812      8.40832      2.74112         0.000161     -0.001182     -0.000161
      8.40832      5.93812      2.74112        -0.001182      0.000161     -0.000161
      0.27092      5.93812      5.93812         0.001182      0.000161      0.000161
      0.27092      2.74112      2.74112         0.001182     -0.000161     -0.000161
      2.74112      0.27092      2.74112        -0.000161      0.001182     -0.000161
      8.40832      2.74112      5.93812        -0.001182     -0.000161      0.000161
      2.74112      8.40832      5.93812        -0.000161     -0.001182      0.000161
      1.04710      1.04710      1.04710        -0.001079     -0.001079     -0.001079
      1.04710      7.63214      7.63214        -0.001079      0.001079      0.001079
      7.63214      7.63214      1.04710         0.001079      0.001079     -0.001079
      7.63214      1.04710      7.63214         0.001079     -0.001079      0.001079
      7.02708      7.02708      4.63991        -0.001896     -0.001896      0.005164
      7.02708      1.65216      4.03933        -0.001896      0.001896     -0.005164
      1.65216      1.65216      4.63991         0.001896      0.001896      0.005164
      1.65216      7.02708      4.03933         0.001896     -0.001896     -0.005164
      1.65216      4.63991      1.65216         0.001896      0.005164      0.001896
      1.65216      4.03933      7.02708         0.001896     -0.005164     -0.001896
      4.03933      1.65216      7.02708        -0.005164      0.001896     -0.001896
      4.63991      1.65216      1.65216         0.005164      0.001896      0.001896
      4.63991      7.02708      7.02708         0.005164     -0.001896     -0.001896
      7.02708      4.63991      7.02708        -0.001896      0.005164     -0.001896
      4.03933      7.02708      1.65216        -0.005164     -0.001896      0.001896
      7.02708      4.03933      1.65216        -0.001896     -0.005164      0.001896
 -----------------------------------------------------------------------------------
    total drift:                                0.000172      0.000172      0.000008


--------------------------------------------------------------------------------------------------------



  FREE ENERGIE OF THE ION-ELECTRON SYSTEM (eV)
  ---------------------------------------------------
  free  energy   TOTEN  =      -204.931374 eV

  energy  without entropy=     -204.911848  energy(sigma->0) =     -204.924865
 
 d Force = 0.5972470E-04[ 0.365E-04, 0.829E-04]  d Energy = 0.4795248E-04 0.118E-04
 d Force =-0.8666596E-02[-0.971E-02,-0.762E-02]  d Ewald  =-0.3483457E+01 0.347E+01


--------------------------------------------------------------------------------------------------------


    POTLOK:  cpu time    0.09: real time    0.09


--------------------------------------------------------------------------------------------------------




--------------------------------------------------------------------------------------------------------


     LOOP+:  cpu time  111.92: real time  112.23
    4ORBIT:  cpu time    0.00: real time    0.00

 total amount of memory used by VASP on root node   139713. kBytes
========================================================================

   base      :      30000. kBytes
   nonlr-proj:       8962. kBytes
   fftplans  :       3408. kBytes
   grid      :       7216. kBytes
   one-center:        808. kBytes
   wavefun   :      89319. kBytes
 
  
  
 General timing and accounting informations for this job:
 ========================================================
  
                  Total CPU time used (sec):     1221.760
                            User time (sec):     1221.280
                          System time (sec):        0.480
                         Elapsed time (sec):     1225.313
  
                   Maximum memory used (kb):      326104.
                   Average memory used (kb):           0.
  
                          Minor page faults:       120852
                          Major page faults:            0
                 Voluntary context switches:         1335
