 vasp.5.2.12 11Nov11 complex                                                    
  
 executed on             LinuxIFC date 2014.05.30  10:53:44
 running on    4 nodes
 distr:  one band on    1 nodes,    4 groups


--------------------------------------------------------------------------------------------------------


 INCAR:
 POTCAR:    PAW_PBE Cu 22Jun2005                  
 POTCAR:    PAW_PBE Al 04Jan2001                  
 POTCAR:    PAW_PBE Cu 22Jun2005                  
   VRHFIN =Cu: d10 p1                                                           
   LEXCH  = PE                                                                  
   EATOM  =  1390.9808 eV,  102.2342 Ry                                         
                                                                                
   TITEL  = PAW_PBE Cu 22Jun2005                                                
   LULTRA =        F    use ultrasoft PP ?                                      
   IUNSCR =        1    unscreen: 0-lin 1-nonlin 2-no                           
   RPACOR =    2.000    partial core radius                                     
   POMASS =   63.546; ZVAL   =   11.000    mass and valenz                      
   RCORE  =    2.300    outmost cutoff radius                                   
   RWIGS  =    2.200; RWIGS  =    1.164    wigner-seitz radius (au A)           
   ENMAX  =  295.446; ENMIN  =  221.585 eV                                      
   ICORE  =        3    local potential                                         
   LCOR   =        T    correct aug charges                                     
   LPAW   =        T    paw PP                                                  
   EAUG   =  586.980                                                            
   DEXC   =    0.000                                                            
   RMAX   =    2.344    core radius for proj-oper                               
   RAUG   =    1.300    factor for augmentation sphere                          
   RDEP   =    2.302    radius for radial grids                                 
   RDEPT  =    1.771    core radius for aug-charge                              
                                                                                
   Atomic configuration                                                         
    9 entries                                                                   
     n  l   j            E        occ.                                          
     1  0  0.50     -8850.2468   2.0000                                         
     2  0  0.50     -1062.3498   2.0000                                         
     2  1  1.50      -916.8226   6.0000                                         
     3  0  0.50      -114.6929   2.0000                                         
     3  1  1.50       -72.1325   6.0000                                         
     3  2  2.50        -5.0394  10.0000                                         
     4  0  0.50        -4.6097   1.0000                                         
     4  1  0.50        -4.0817   0.0000                                         
     4  3  2.50        -1.3606   0.0000                                         
   Description                                                                  
     l       E           TYP  RCUT    TYP  RCUT                                 
     2     -5.0393973     23  2.200                                             
     2     10.8846608     23  2.200                                             
     0     -4.6097109     23  2.200                                             
     0      8.2520465     23  2.200                                             
     1     -2.7211652     23  2.200                                             
     1     21.7055443     23  2.200                                             
     3      2.7211652     23  2.300                                             
  local pseudopotential read in
  partial core-charges read in
  partial kinetic energy density read in
  atomic valenz-charges read in
  non local Contribution for L=           2  read in
    real space projection operators read in
  non local Contribution for L=           2  read in
    real space projection operators read in
  non local Contribution for L=           0  read in
    real space projection operators read in
  non local Contribution for L=           0  read in
    real space projection operators read in
  non local Contribution for L=           1  read in
    real space projection operators read in
  non local Contribution for L=           1  read in
    real space projection operators read in
    PAW grid and wavefunctions read in
 
   number of l-projection  operators is LMAX  =           6
   number of lm-projection operators is LMMAX =          18
 
 POTCAR:    PAW_PBE Al 04Jan2001                  
   VRHFIN =Al: s2p1                                                             
   LEXCH  = PE                                                                  
   EATOM  =    53.5387 eV,    3.9350 Ry                                         
                                                                                
   TITEL  = PAW_PBE Al 04Jan2001                                                
   LULTRA =        F    use ultrasoft PP ?                                      
   IUNSCR =        1    unscreen: 0-lin 1-nonlin 2-no                           
   RPACOR =    1.500    partial core radius                                     
   POMASS =   26.981; ZVAL   =    3.000    mass and valenz                      
   RCORE  =    1.900    outmost cutoff radius                                   
   RWIGS  =    2.650; RWIGS  =    1.402    wigner-seitz radius (au A)           
   ENMAX  =  240.300; ENMIN  =  180.225 eV                                      
   ICORE  =        2    local potential                                         
   LCOR   =        T    correct aug charges                                     
   LPAW   =        T    paw PP                                                  
   EAUG   =  291.052                                                            
   DEXC   =    0.000                                                            
   RMAX   =    1.939    core radius for proj-oper                               
   RAUG   =    1.300    factor for augmentation sphere                          
   RDEP   =    1.966    radius for radial grids                                 
   RDEPT  =    1.856    core radius for aug-charge                              
                                                                                
   Atomic configuration                                                         
    6 entries                                                                   
     n  l   j            E        occ.                                          
     1  0  0.50     -1511.1048   2.0000                                         
     2  0  0.50      -108.1629   2.0000                                         
     2  1  1.50       -69.6402   6.0000                                         
     3  0  0.50        -7.7528   2.0000                                         
     3  1  1.50        -2.7121   1.0000                                         
     3  2  2.50        -2.7212   0.0000                                         
   Description                                                                  
     l       E           TYP  RCUT    TYP  RCUT                                 
     0     -7.7528455     23  1.900                                             
     0     -3.3096929     23  1.900                                             
     1     -2.7120682     23  1.900                                             
     1     13.6058260     23  1.900                                             
     2     -2.7211652      7  1.900                                             
  local pseudopotential read in
  partial core-charges read in
  partial kinetic energy density read in
  atomic valenz-charges read in
  non local Contribution for L=           0  read in
    real space projection operators read in
  non local Contribution for L=           0  read in
    real space projection operators read in
  non local Contribution for L=           1  read in
    real space projection operators read in
  non local Contribution for L=           1  read in
    real space projection operators read in
    PAW grid and wavefunctions read in
 
   number of l-projection  operators is LMAX  =           4
   number of lm-projection operators is LMMAX =           8
 
 Optimization of the real space projectors (new method)

 maximal supplied QI-value         = 16.25
 optimisation between [QCUT,QGAM] = [  8.78, 17.55] = [ 21.57, 86.27] Ry 
 Optimized for a Real-space Cutoff    1.61 Angstroem

   l    n(q)    QCUT    max X(q) W(low)/X(q) W(high)/X(q)  e(spline) 
   2      7     8.776     4.610    0.19E-03    0.29E-03    0.29E-06
   2      7     8.776     8.522    0.28E-03    0.56E-03    0.43E-06
   0      8     8.776    51.609    0.51E-04    0.19E-03    0.66E-07
   0      8     8.776    27.747    0.45E-04    0.18E-03    0.64E-07
   1      8     8.776    20.408    0.41E-03    0.31E-03    0.23E-06
   1      8     8.776    13.425    0.36E-03    0.28E-03    0.21E-06
 Optimization of the real space projectors (new method)

 maximal supplied QI-value         = 19.84
 optimisation between [QCUT,QGAM] = [  8.73, 17.46] = [ 21.34, 85.38] Ry 
 Optimized for a Real-space Cutoff    1.43 Angstroem

   l    n(q)    QCUT    max X(q) W(low)/X(q) W(high)/X(q)  e(spline) 
   0      7     8.731   176.870    0.24E-03    0.42E-04    0.12E-06
   0      7     8.731   105.762    0.23E-03    0.40E-04    0.11E-06
   1      7     8.731    55.370    0.23E-03    0.67E-03    0.12E-06
   1      7     8.731    20.208    0.21E-03    0.61E-03    0.12E-06
  PAW_PBE Cu 22Jun2005                  :
 energy of atom  1       EATOM=-1390.9808
 kinetic energy error for atom=    0.0452 (will be added to EATOM!!)
  PAW_PBE Al 04Jan2001                  :
 energy of atom  2       EATOM=  -53.5387
 kinetic energy error for atom=    0.0012 (will be added to EATOM!!)
 
 
 POSCAR: XYZ: Cu16Al10                           
  positions in direct lattice
  velocities in cartesian coordinates
 exchange correlation table for  LEXCH =        8
   RHO(1)=    0.500       N(1)  =     2000
   RHO(2)=  100.500       N(2)  =     4000
 


--------------------------------------------------------------------------------------------------------


 ion  position               nearest neighbor table
   1  0.215  0.215  0.215-  21 2.53  24 2.53  25 2.53   5 2.67  13 2.67  14 2.67   2 2.67   3 2.67
                             4 2.67  18 2.70  19 2.70  20 2.70
   2  0.785  0.000  0.000-  21 2.53  22 2.53  26 2.53  16 2.67   6 2.67  12 2.67   1 2.67   3 2.67
                             4 2.67  17 2.70  19 2.70  20 2.70
   3  0.000  0.000  0.785-  25 2.53  23 2.53  22 2.53  11 2.67  10 2.67   7 2.67   1 2.67   2 2.67
                             4 2.67  17 2.70  18 2.70  20 2.70
   4  0.000  0.785  0.000-  23 2.53  24 2.53  26 2.53  15 2.67   8 2.67   9 2.67   1 2.67   2 2.67
                             3 2.67  17 2.70  18 2.70  19 2.70
   5  0.342  0.342  0.629-  19 2.47  26 2.53  17 2.55  11 2.59  10 2.59  12 2.59   9 2.59   1 2.67
                            25 2.76  21 2.79  24 2.79
   6  0.658  0.287  0.000-  20 2.47  25 2.53  18 2.55  13 2.59   9 2.59  15 2.59  10 2.59   2 2.67
                            26 2.76  21 2.79  22 2.79
   7  0.713  0.713  0.371-  17 2.47  26 2.53  19 2.55  16 2.59  15 2.59  14 2.59  13 2.59   3 2.67
                            25 2.76  22 2.79  23 2.79
   8  0.287  0.658  0.000-  18 2.47  25 2.53  20 2.55  14 2.59  12 2.59  16 2.59  11 2.59   4 2.67
                            26 2.76  23 2.79  24 2.79
   9  0.713  0.371  0.713-  17 2.47  22 2.53  20 2.55  11 2.59   6 2.59  13 2.59   5 2.59   4 2.67
                            24 2.76  23 2.79  26 2.79
  10  0.287  0.000  0.658-  18 2.47  24 2.53  19 2.55  12 2.59   5 2.59  15 2.59   6 2.59   3 2.67
                            22 2.76  25 2.79  23 2.79
  11  0.000  0.287  0.658-  20 2.47  21 2.53  19 2.55   9 2.59   5 2.59  16 2.59   8 2.59   3 2.67
                            23 2.76  25 2.79  22 2.79
  12  0.371  0.713  0.713-  17 2.47  23 2.53  18 2.55  10 2.59   8 2.59  14 2.59   5 2.59   2 2.67
                            21 2.76  22 2.79  26 2.79
  13  0.629  0.342  0.342-  18 2.47  23 2.53  17 2.55  16 2.59   6 2.59   7 2.59   9 2.59   1 2.67
                            21 2.76  24 2.79  25 2.79
  14  0.342  0.629  0.342-  20 2.47  22 2.53  17 2.55  15 2.59   8 2.59   7 2.59  12 2.59   1 2.67
                            24 2.76  21 2.79  25 2.79
  15  0.000  0.658  0.287-  19 2.47  21 2.53  20 2.55  14 2.59   7 2.59   6 2.59  10 2.59   4 2.67
                            23 2.76  26 2.79  24 2.79
  16  0.658  0.000  0.287-  19 2.47  24 2.53  18 2.55  13 2.59   7 2.59   8 2.59  11 2.59   2 2.67
                            22 2.76  26 2.79  21 2.79
  17  0.636  0.636  0.636-   7 2.47   9 2.47  12 2.47   5 2.55  13 2.55  14 2.55   2 2.70   3 2.70
                             4 2.70  22 2.71  23 2.71  26 2.71
  18  0.364  0.000  0.000-   8 2.47  10 2.47  13 2.47  12 2.55   6 2.55  16 2.55   1 2.70   3 2.70
                             4 2.70  23 2.71  24 2.71  25 2.71
  19  0.000  0.000  0.364-  15 2.47  16 2.47   5 2.47   7 2.55  10 2.55  11 2.55   1 2.70   2 2.70
                             4 2.70  21 2.71  24 2.71  26 2.71
  20  0.000  0.364  0.000-   6 2.47  11 2.47  14 2.47   9 2.55   8 2.55  15 2.55   1 2.70   2 2.70
                             3 2.70  21 2.71  22 2.71  25 2.71
  21  0.000  0.353  0.353-  11 2.53  15 2.53   1 2.53   2 2.53  23 2.59  20 2.71  19 2.71  13 2.76
                            12 2.76   6 2.79  16 2.79  14 2.79   5 2.79
  22  0.647  0.000  0.647-   9 2.53  14 2.53   2 2.53   3 2.53  24 2.59  20 2.71  17 2.71  16 2.76
                            10 2.76   6 2.79  11 2.79  12 2.79   7 2.79
  23  0.000  0.647  0.647-  12 2.53  13 2.53   3 2.53   4 2.53  21 2.59  18 2.71  17 2.71  15 2.76
                            11 2.76   8 2.79  10 2.79   7 2.79   9 2.79
  24  0.353  0.000  0.353-  10 2.53  16 2.53   1 2.53   4 2.53  22 2.59  19 2.71  18 2.71  14 2.76
                             9 2.76   8 2.79  15 2.79   5 2.79  13 2.79
  25  0.353  0.353  0.000-   6 2.53   8 2.53   1 2.53   3 2.53  26 2.59  20 2.71  18 2.71   5 2.76
                             7 2.76  11 2.79  10 2.79  14 2.79  13 2.79
  26  0.647  0.647  0.000-   7 2.53   5 2.53   2 2.53   4 2.53  25 2.59  19 2.71  17 2.71   8 2.76
                             6 2.76  16 2.79  15 2.79  12 2.79   9 2.79
 
  LATTYP: Found a body centered cubic cell.
 ALAT       =     8.7744720231
  
  Lattice vectors:
  
 A1 = (  -4.3872360115,   4.3872360115,   4.3872360115)
 A2 = (   4.3872360115,  -4.3872360115,   4.3872360115)
 A3 = (   4.3872360115,   4.3872360115,  -4.3872360115)
 Subroutine PRICEL returns:
 Original cell was already a primitive cell.
 

Analysis of symmetry for initial positions (statically):

 Routine SETGRP: Setting up the symmetry group for a 
 body centered cubic supercell.


 Subroutine GETGRP returns: Found 24 space group operations
 (whereof 24 operations were pure point group operations)
 out of a pool of 48 trial point group operations.


The static configuration has the point symmetry T_d .

Analysis of symmetry for dynamics (positions and initial velocities):

 Subroutine DYNSYM returns: Found 24 space group operations
 (whereof 24 operations were pure point group operations)
 out of a pool of 24 trial space group operations
 (whereof 24 operations were pure point group operations)
 and found also     1 'primitive' translations


The dynamic configuration has the point symmetry T_d .
 
 
 KPOINTS: Automatic mesh                          

Automatic generation of k-mesh.
 
 Subroutine IBZKPT returns following result:
 ===========================================
 
 Found     16 irreducible k-points:
 
 Following reciprocal coordinates:
            Coordinates               Weight
  0.000000  0.000000  0.000000      1.000000
  0.166667  0.000000  0.000000     12.000000
  0.333333  0.000000  0.000000     12.000000
  0.500000  0.000000  0.000000      6.000000
  0.166667  0.166667  0.000000     24.000000
  0.333333  0.166667  0.000000     48.000000
  0.333333  0.333333  0.000000      8.000000
  0.166667  0.166667  0.166667      8.000000
  0.333333  0.166667  0.166667     12.000000
 -0.166667  0.166667  0.166667      6.000000
 -0.333333  0.333333  0.166667     24.000000
  0.500000  0.500000  0.166667     12.000000
 -0.333333  0.500000  0.166667     24.000000
 -0.333333  0.333333  0.333333      6.000000
  0.500000  0.500000  0.333333     12.000000
  0.500000  0.500000  0.500000      1.000000
 
 Following cartesian coordinates:
            Coordinates               Weight
  0.000000  0.000000  0.000000      1.000000
  0.000000  0.018994  0.018994     12.000000
  0.000000  0.037989  0.037989     12.000000
  0.000000  0.056983  0.056983      6.000000
  0.018994  0.018994  0.037989     24.000000
  0.018994  0.037989  0.056983     48.000000
  0.037989  0.037989  0.075978      8.000000
  0.037989  0.037989  0.037989      8.000000
  0.037989  0.056983  0.056983     12.000000
  0.037989  0.000000  0.000000      6.000000
  0.056983 -0.018994  0.000000     24.000000
  0.075978  0.075978  0.113967     12.000000
  0.075978 -0.018994  0.018994     24.000000
  0.075978  0.000000  0.000000      6.000000
  0.094972  0.094972  0.113967     12.000000
  0.113967  0.113967  0.113967      1.000000
 


--------------------------------------------------------------------------------------------------------




 Dimension of arrays:
   k-points           NKPTS =     16   k-points in BZ     NKDIM =     16   number of bands    NBANDS=    124
   number of dos      NEDOS =    301   number of ions     NIONS =     26
   non local maximal  LDIM  =      6   non local SUM 2l+1 LMDIM =     18
   total plane-waves  NPLWV =  32768
   max r-space proj   IRMAX =   1734   max aug-charges    IRDMAX=   3975
   dimension x,y,z NGX =    32 NGY =   32 NGZ =   32
   dimension x,y,z NGXF=    64 NGYF=   64 NGZF=   64
   support grid    NGXF=    64 NGYF=   64 NGZF=   64
   ions per type =              16  10
 NGX,Y,Z   is equivalent  to a cutoff of   7.00,  7.00,  7.00 a.u.
 NGXF,Y,Z  is equivalent  to a cutoff of  14.00, 14.00, 14.00 a.u.


 I would recommend the setting:
   dimension x,y,z NGX =    32 NGY =   32 NGZ =   32
 SYSTEM =  Al10Cu16                                
 POSCAR =  XYZ: Cu16Al10                           

 Startparameter for this run:
   NWRITE =      2    write-flag & timer
   PREC   = normal    normal or accurate (medium, high low for compatibility)
   ISTART =      0    job   : 0-new  1-cont  2-samecut
   ICHARG =      2    charge: 1-file 2-atom 10-const
   ISPIN  =      1    spin polarized calculation?
   LNONCOLLINEAR =      F non collinear calculations
   LSORBIT =      F    spin-orbit coupling
   INIWAV =      1    electr: 0-lowe 1-rand  2-diag
   LASPH  =      F    aspherical Exc in radial PAW
   METAGGA=      F    non-selfconsistent MetaGGA calc.

 Electronic Relaxation 1
   ENCUT  =  295.4 eV  21.71 Ry    4.66 a.u.  10.65 10.65 10.65*2*pi/ulx,y,z
   ENINI  =  295.4     initial cutoff
   ENAUG  =  587.0 eV  augmentation charge cutoff
   NELM   =     40;   NELMIN=  2; NELMDL=  0     # of ELM steps 
   EDIFF  = 0.1E-05   stopping-criterion for ELM
   LREAL  =      T    real-space projection
   NLSPLINE    = F    spline interpolate recip. space projectors
   LCOMPAT=      F    compatible to vasp.4.4
   GGA_COMPAT  = T    GGA compatible to vasp.4.4-vasp.4.6
   LMAXPAW     = -100 max onsite density
   LMAXMIX     =    2 max onsite mixed and CHGCAR
   VOSKOWN=      0    Vosko Wilk Nusair interpolation
   ROPT   =   -0.00050  -0.00050
 Ionic relaxation
   EDIFFG = 0.1E-04   stopping-criterion for IOM
   NSW    =     10    number of steps for IOM
   NBLOCK =      1;   KBLOCK =     10    inner block; outer block 
   IBRION =      2    ionic relax: 0-MD 1-quasi-New 2-CG
   NFREE  =      1    steps in history (QN), initial steepest desc. (CG)
   ISIF   =      3    stress and relaxation
   IWAVPR =     11    prediction:  0-non 1-charg 2-wave 3-comb
   ISYM   =      2    0-nonsym 1-usesym 2-fastsym
   LCORR  =      T    Harris-Foulkes like correction to forces

   POTIM  = 0.2500    time-step for ionic-motion
   TEIN   =    0.0    initial temperature
   TEBEG  =    0.0;   TEEND  =   0.0 temperature during run
   SMASS  =  -3.00    Nose mass-parameter (am)
   estimated Nose-frequenzy (Omega)   =  0.10E-29 period in steps =****** mass=  -0.132E-26a.u.
   SCALEE = 1.0000    scale energy and forces
   NPACO  =    256;   APACO  = 16.0  distance and # of slots for P.C.
   PSTRESS=    0.0 pullay stress

  Mass of Ions in am
   POMASS =  63.55 26.98
  Ionic Valenz
   ZVAL   =  11.00  3.00
  Atomic Wigner-Seitz radii
   RWIGS  =  -1.00 -1.00
  virtual crystal weights 
   VCA    =   1.00  1.00
   NELECT =     206.0000    total number of electrons
   NUPDOWN=      -1.0000    fix difference up-down

 DOS related values:
   EMIN   =  10.00;   EMAX   =-10.00  energy-range for DOS
   EFERMI =   0.00
   ISMEAR =     1;   SIGMA  =   0.20  broadening in eV -4-tet -1-fermi 0-gaus

 Electronic relaxation 2 (details)
   IALGO  =     68    algorithm
   LDIAG  =      T    sub-space diagonalisation (order eigenvalues)
   LSUBROT=      T    optimize rotation matrix (better conditioning)
   TURBO    =      0    0=normal 1=particle mesh
   IRESTART =      0    0=no restart 2=restart with 2 vectors
   NREBOOT  =      0    no. of reboots
   NMIN     =      0    reboot dimension
   EREF     =   0.00    reference energy to select bands
   IMIX   =      4    mixing-type and parameters
     AMIX     =   0.40;   BMIX     =  1.00
     AMIX_MAG =   1.60;   BMIX_MAG =  1.00
     AMIN     =   0.10
     WC   =   100.;   INIMIX=   1;  MIXPRE=   1

 Intra band minimization:
   WEIMIN = 0.0010     energy-eigenvalue tresh-hold
   EBREAK =  0.20E-08  absolut break condition
   DEPER  =   0.30     relativ break condition  

   TIME   =   0.40     timestep for ELM

  volume/ion in A,a.u.               =      12.99        87.67
  Fermi-wavevector in a.u.,A,eV,Ry     =   1.388309  2.623524 26.223907  1.927403
  Thomas-Fermi vector in A             =   2.512448
 
 Write flags
   LWAVE  =      F    write WAVECAR
   LCHARG =      F    write CHGCAR
   LVTOT  =      F    write LOCPOT, total local potential
   LVHAR  =      F    write LOCPOT, Hartree potential only
   LELF   =      F    write electronic localiz. function (ELF)
   LORBIT =      0    0 simple, 1 ext, 2 COOP (PROOUT)


 Dipole corrections
   LMONO  =      F    monopole corrections only (constant potential shift)
   LDIPOL =      F    correct potential (dipole corrections)
   IDIPOL =      0    1-x, 2-y, 3-z, 4-all directions 
   EPSILON=  1.0000000 bulk dielectric constant

 Exchange correlation treatment:
   GGA     =    --    GGA type
   LEXCH   =     8    internal setting for exchange type
   VOSKOWN=      0    Vosko Wilk Nusair interpolation
   LHFCALC =     F    Hartree Fock is set to
   LHFONE  =     F    Hartree Fock one center treatment
   AEXX    =    0.0000 exact exchange contribution

 Linear response parameters
   LEPSILON=     F    determine dielectric tensor
   LRPA    =     F    only Hartree local field effects (RPA)
   LNABLA  =     F    use nabla operator in PAW spheres
   LVEL    =     F    velocity operator in full k-point grid
   LINTERFAST=   F  fast interpolation
   KINTER  =     0    interpolate to denser k-point grid
   CSHIFT  =0.1000    complex shift for real part using Kramers Kronig
   OMEGAMAX=  -1.0    maximum frequency
   RTIME   =    0.100 relaxation time in fs

 Orbital magnetization related:
   ORBITALMAG=     F  switch on orbital magnetization
   LCHIMAG   =     F  perturbation theory with respect to B field
   DQ        =  0.001000  dq finite difference perturbation B field



--------------------------------------------------------------------------------------------------------


 conjugate gradient relaxation of ions
 charge density and potential will be updated during run
 non-spin polarized calculation
 RMM-DIIS sequential band-by-band and
  variant of blocked Davidson during initial phase
 perform sub-space diagonalisation
    before iterative eigenvector-optimisation
 modified Broyden-mixing scheme, WC =      100.0
 initial mixing is a Kerker type mixing with AMIX =  0.4000 and BMIX =      1.0000
 Hartree-type preconditioning will be used
 using additional bands           21
 real space projection scheme for non local part
 use partial core corrections
 calculate Harris-corrections to forces 
   (improved forces if not selfconsistent)
 use gradient corrections 
 use of overlap-Matrix (Vanderbilt PP)
 Methfessel and Paxton  Order N= 1 SIGMA  =   0.20


--------------------------------------------------------------------------------------------------------


  energy-cutoff  :      295.45
  volume of cell :      337.78
      direct lattice vectors                 reciprocal lattice vectors
    -4.387236012  4.387236012  4.387236012     0.000000000  0.113966971  0.113966971
     4.387236012 -4.387236012  4.387236012     0.113966971  0.000000000  0.113966971
     4.387236012  4.387236012 -4.387236012     0.113966971  0.113966971  0.000000000

  length of vectors
     7.598915677  7.598915677  7.598915677     0.161173636  0.161173636  0.161173636


 
 k-points in units of 2pi/SCALE and weight: Automatic mesh                          
   0.00000000  0.00000000  0.00000000       0.005
   0.00000000  0.01899450  0.01899450       0.056
   0.00000000  0.03798899  0.03798899       0.056
   0.00000000  0.05698349  0.05698349       0.028
   0.01899450  0.01899450  0.03798899       0.111
   0.01899450  0.03798899  0.05698349       0.222
   0.03798899  0.03798899  0.07597798       0.037
   0.03798899  0.03798899  0.03798899       0.037
   0.03798899  0.05698349  0.05698349       0.056
   0.03798899  0.00000000  0.00000000       0.028
   0.05698349 -0.01899450  0.00000000       0.111
   0.07597798  0.07597798  0.11396697       0.056
   0.07597798 -0.01899450  0.01899450       0.111
   0.07597798  0.00000000  0.00000000       0.028
   0.09497248  0.09497248  0.11396697       0.056
   0.11396697  0.11396697  0.11396697       0.005
 
 k-points in reciprocal lattice and weights: Automatic mesh                          
   0.00000000  0.00000000  0.00000000       0.005
   0.16666667  0.00000000  0.00000000       0.056
   0.33333333  0.00000000  0.00000000       0.056
   0.50000000  0.00000000  0.00000000       0.028
   0.16666667  0.16666667  0.00000000       0.111
   0.33333333  0.16666667  0.00000000       0.222
   0.33333333  0.33333333  0.00000000       0.037
   0.16666667  0.16666667  0.16666667       0.037
   0.33333333  0.16666667  0.16666667       0.056
  -0.16666667  0.16666667  0.16666667       0.028
  -0.33333333  0.33333333  0.16666667       0.111
   0.50000000  0.50000000  0.16666667       0.056
  -0.33333333  0.50000000  0.16666667       0.111
  -0.33333333  0.33333333  0.33333333       0.028
   0.50000000  0.50000000  0.33333333       0.056
   0.50000000  0.50000000  0.50000000       0.005
 
 position of ions in fractional coordinates (direct lattice) 
   0.21491841  0.21491841  0.21491841
   0.78508159  0.00000000  0.00000000
   0.00000000  0.00000000  0.78508159
   0.00000000  0.78508159  0.00000000
   0.34228894  0.34228894  0.62948060
   0.65771106  0.28719166  0.00000000
   0.71280834  0.71280834  0.37051940
   0.28719166  0.65771106  0.00000000
   0.71280834  0.37051940  0.71280834
   0.28719166  0.00000000  0.65771106
   0.00000000  0.28719166  0.65771106
   0.37051940  0.71280834  0.71280834
   0.62948060  0.34228894  0.34228894
   0.34228894  0.62948060  0.34228894
   0.00000000  0.65771106  0.28719166
   0.65771106  0.00000000  0.28719166
   0.63627476  0.63627476  0.63627476
   0.36372524  0.00000000  0.00000000
   0.00000000  0.00000000  0.36372524
   0.00000000  0.36372524  0.00000000
   0.00000000  0.35250869  0.35250869
   0.64749131  0.00000000  0.64749131
   0.00000000  0.64749131  0.64749131
   0.35250869  0.00000000  0.35250869
   0.35250869  0.35250869  0.00000000
   0.64749131  0.64749131  0.00000000
 
 position of ions in cartesian coordinates  (Angst):
   0.94289780  0.94289780  0.94289780
  -3.44433821  3.44433821  3.44433821
   3.44433821  3.44433821 -3.44433821
   3.44433821 -3.44433821  3.44433821
   2.76167994  2.76167994  0.24172479
  -1.62555607  1.62555607  4.14551122
   1.62555607  1.62555607  4.62896080
   1.62555607 -1.62555607  4.14551122
   1.62555607  4.62896080  1.62555607
   1.62555607  4.14551122 -1.62555607
   4.14551122  1.62555607 -1.62555607
   4.62896080  1.62555607  1.62555607
   0.24172479  2.76167994  2.76167994
   2.76167994  0.24172479  2.76167994
   4.14551122 -1.62555607  1.62555607
  -1.62555607  4.14551122  1.62555607
   2.79148754  2.79148754  2.79148754
  -1.59574847  1.59574847  1.59574847
   1.59574847  1.59574847 -1.59574847
   1.59574847 -1.59574847  1.59574847
   3.09307767  0.00000000  0.00000000
   0.00000000  5.68139435  0.00000000
   5.68139435  0.00000000  0.00000000
   0.00000000  3.09307767  0.00000000
   0.00000000  0.00000000  3.09307767
   0.00000000  0.00000000  5.68139435
 


--------------------------------------------------------------------------------------------------------


 k-point  1 :  0.00000.00000.0000  plane waves:    3925
 k-point  2 :  0.16670.00000.0000  plane waves:    3915
 k-point  3 :  0.33330.00000.0000  plane waves:    3878
 k-point  4 :  0.50000.00000.0000  plane waves:    3894
 k-point  5 :  0.16670.16670.0000  plane waves:    3903
 k-point  6 :  0.33330.16670.0000  plane waves:    3895
 k-point  7 :  0.33330.33330.0000  plane waves:    3883
 k-point  8 :  0.16670.16670.1667  plane waves:    3883
 k-point  9 :  0.33330.16670.1667  plane waves:    3886
 k-point 10 :  -.16670.16670.1667  plane waves:    3896
 k-point 11 :  -.33330.33330.1667  plane waves:    3889
 k-point 12 :  0.50000.50000.1667  plane waves:    3936
 k-point 13 :  -.33330.50000.1667  plane waves:    3893
 k-point 14 :  -.33330.33330.3333  plane waves:    3900
 k-point 15 :  0.50000.50000.3333  plane waves:    3890
 k-point 16 :  0.50000.50000.5000  plane waves:    3884

 maximum and minimum number of plane-waves per node :      3936     3878

 maximum number of plane-waves:      3936
 maximum index in each direction: 
   IXMAX=   10   IYMAX=   10   IZMAX=   10
   IXMIN=  -11   IYMIN=  -11   IZMIN=  -11

 WARNING: aliasing errors must be expected set NGX to  44 to avoid them
 WARNING: aliasing errors must be expected set NGY to  44 to avoid them
 WARNING: aliasing errors must be expected set NGZ to  44 to avoid them
 aliasing errors are usually negligible using standard VASP settings
 and one can safely disregard these warnings

 serial   3D FFT for wavefunctions
 parallel 3D FFT for charge:
    minimum data exchange during FFTs selected (reduces bandwidth)


 total amount of memory used by VASP on root node    77721. kBytes
========================================================================

   base      :      30000. kBytes
   nonlr-proj:       5681. kBytes
   fftplans  :       2401. kBytes
   grid      :       5079. kBytes
   one-center:        404. kBytes
   wavefun   :      34156. kBytes
 
 Broyden mixing: mesh for mixing (old mesh)
   NGX = 21   NGY = 21   NGZ = 21
  (NGX  = 64   NGY  = 64   NGZ  = 64)
  gives a total of   9261 points

 initial charge density was supplied:
 charge density of overlapping atoms calculated
 number of electron     206.0000000 magnetization 
 keeping initial charge density in first step


--------------------------------------------------------------------------------------------------------


 Maximum index for non-local projection operator         1630
 Maximum index for augmentation-charges          929 (set IRDMAX)


--------------------------------------------------------------------------------------------------------


 First call to EWALD:  gamma=   0.255
 Maximum number of real-space cells 3x 3x 3
 Maximum number of reciprocal cells 3x 3x 3

    FEWALD:  cpu time    0.00: real time    0.01


----------------------------------------- Iteration    1(   1)  ---------------------------------------


    POTLOK:  cpu time    0.04: real time    0.04
    SETDIJ:  cpu time    0.02: real time    0.01
     EDDAV:  cpu time    5.65: real time    5.66
       DOS:  cpu time    0.00: real time    0.00
    --------------------------------------------
      LOOP:  cpu time    5.71: real time    5.73

 eigenvalue-minimisations  :  3968
 total energy-change (2. order) : 0.1554971E+04  (-0.5654051E+04)
 number of electron     206.0000000 magnetization 
 augmentation part      206.0000000 magnetization 

 Free energy of the ion-electron system (eV)
  ---------------------------------------------------
  alpha Z        PSCENC =       641.91652338
  Ewald energy   TEWEN  =    -16194.04033373
  -1/2 Hartree   DENC   =     -7799.88530403
  -exchange  EXHF       =         0.00000000
  -V(xc)+E(xc)   XCENC  =       473.54688140
  PAW double counting   =     20313.30812931   -21687.23168159
  entropy T*S    EENTRO =         0.00354902
  eigenvalues    EBANDS =      3017.00818716
  atomic energy  EATOM  =     22790.34483746
  ---------------------------------------------------
  free energy    TOTEN  =      1554.97078838 eV

  energy without entropy =     1554.96723936  energy(sigma->0) =     1554.96960538


--------------------------------------------------------------------------------------------------------




----------------------------------------- Iteration    1(   2)  ---------------------------------------


     EDDAV:  cpu time    5.74: real time    5.75
       DOS:  cpu time    0.00: real time    0.00
    --------------------------------------------
      LOOP:  cpu time    5.74: real time    5.76

 eigenvalue-minimisations  :  3968
 total energy-change (2. order) :-0.1467381E+04  (-0.1426602E+04)
 number of electron     206.0000000 magnetization 
 augmentation part      206.0000000 magnetization 

 Free energy of the ion-electron system (eV)
  ---------------------------------------------------
  alpha Z        PSCENC =       641.91652338
  Ewald energy   TEWEN  =    -16194.04033373
  -1/2 Hartree   DENC   =     -7799.88530403
  -exchange  EXHF       =         0.00000000
  -V(xc)+E(xc)   XCENC  =       473.54688140
  PAW double counting   =     20313.30812931   -21687.23168159
  entropy T*S    EENTRO =         0.01631958
  eigenvalues    EBANDS =      1549.61414647
  atomic energy  EATOM  =     22790.34483746
  ---------------------------------------------------
  free energy    TOTEN  =        87.58951826 eV

  energy without entropy =       87.57319867  energy(sigma->0) =       87.58407839


--------------------------------------------------------------------------------------------------------




----------------------------------------- Iteration    1(   3)  ---------------------------------------


     EDDAV:  cpu time    5.80: real time    5.83
       DOS:  cpu time    0.00: real time    0.00
    --------------------------------------------
      LOOP:  cpu time    5.81: real time    5.83

 eigenvalue-minimisations  :  4080
 total energy-change (2. order) :-0.2030762E+03  (-0.1810653E+03)
 number of electron     206.0000000 magnetization 
 augmentation part      206.0000000 magnetization 

 Free energy of the ion-electron system (eV)
  ---------------------------------------------------
  alpha Z        PSCENC =       641.91652338
  Ewald energy   TEWEN  =    -16194.04033373
  -1/2 Hartree   DENC   =     -7799.88530403
  -exchange  EXHF       =         0.00000000
  -V(xc)+E(xc)   XCENC  =       473.54688140
  PAW double counting   =     20313.30812931   -21687.23168159
  entropy T*S    EENTRO =        -0.01493363
  eigenvalues    EBANDS =      1346.56924166
  atomic energy  EATOM  =     22790.34483746
  ---------------------------------------------------
  free energy    TOTEN  =      -115.48663977 eV

  energy without entropy =     -115.47170614  energy(sigma->0) =     -115.48166190


--------------------------------------------------------------------------------------------------------




----------------------------------------- Iteration    1(   4)  ---------------------------------------


     EDDAV:  cpu time    8.05: real time    8.09
       DOS:  cpu time    0.00: real time    0.00
    --------------------------------------------
      LOOP:  cpu time    8.06: real time    8.09

 eigenvalue-minimisations  :  5952
 total energy-change (2. order) :-0.1149121E+02  (-0.1114723E+02)
 number of electron     206.0000000 magnetization 
 augmentation part      206.0000000 magnetization 

 Free energy of the ion-electron system (eV)
  ---------------------------------------------------
  alpha Z        PSCENC =       641.91652338
  Ewald energy   TEWEN  =    -16194.04033373
  -1/2 Hartree   DENC   =     -7799.88530403
  -exchange  EXHF       =         0.00000000
  -V(xc)+E(xc)   XCENC  =       473.54688140
  PAW double counting   =     20313.30812931   -21687.23168159
  entropy T*S    EENTRO =        -0.01677089
  eigenvalues    EBANDS =      1335.07987153
  atomic energy  EATOM  =     22790.34483746
  ---------------------------------------------------
  free energy    TOTEN  =      -126.97784716 eV

  energy without entropy =     -126.96107627  energy(sigma->0) =     -126.97225686


--------------------------------------------------------------------------------------------------------




----------------------------------------- Iteration    1(   5)  ---------------------------------------


     EDDAV:  cpu time    8.20: real time    8.22
       DOS:  cpu time    0.00: real time    0.00
    CHARGE:  cpu time    0.23: real time    0.23
    MIXING:  cpu time    0.00: real time    0.00
    --------------------------------------------
      LOOP:  cpu time    8.44: real time    8.45

 eigenvalue-minimisations  :  6136
 total energy-change (2. order) :-0.2667748E+00  (-0.2655887E+00)
 number of electron     205.9998975 magnetization 
 augmentation part       98.5734339 magnetization 

 Broyden mixing:
  rms(total) = 0.44058E+01    rms(broyden)= 0.44045E+01
  rms(prec ) = 0.73627E+01
  weight for this iteration     100.00

 Free energy of the ion-electron system (eV)
  ---------------------------------------------------
  alpha Z        PSCENC =       641.91652338
  Ewald energy   TEWEN  =    -16194.04033373
  -1/2 Hartree   DENC   =     -7799.88530403
  -exchange  EXHF       =         0.00000000
  -V(xc)+E(xc)   XCENC  =       473.54688140
  PAW double counting   =     20313.30812931   -21687.23168159
  entropy T*S    EENTRO =        -0.01678090
  eigenvalues    EBANDS =      1334.81310678
  atomic energy  EATOM  =     22790.34483746
  ---------------------------------------------------
  free energy    TOTEN  =      -127.24462191 eV

  energy without entropy =     -127.22784101  energy(sigma->0) =     -127.23902828


--------------------------------------------------------------------------------------------------------




----------------------------------------- Iteration    1(   6)  ---------------------------------------


    POTLOK:  cpu time    0.04: real time    0.04
    SETDIJ:  cpu time    0.01: real time    0.01
    EDDIAG:  cpu time    0.91: real time    0.91
  RMM-DIIS:  cpu time    2.80: real time    2.81
    ORTHCH:  cpu time    0.27: real time    0.28
       DOS:  cpu time    0.00: real time    0.00
    CHARGE:  cpu time    0.23: real time    0.22
    MIXING:  cpu time    0.01: real time    0.00
    --------------------------------------------
      LOOP:  cpu time    4.27: real time    4.28

 eigenvalue-minimisations  :  3969
 total energy-change (2. order) :-0.2997112E+01  (-0.5367614E+02)
 number of electron     205.9998676 magnetization 
 augmentation part      121.8186085 magnetization 

 Broyden mixing:
  rms(total) = 0.33672E+01    rms(broyden)= 0.33661E+01
  rms(prec ) = 0.53446E+01
  weight for this iteration     100.00

 eigenvalues of (default mixing * dielectric matrix)
  average eigenvalue GAMMA=   0.5668
  0.5668

 Free energy of the ion-electron system (eV)
  ---------------------------------------------------
  alpha Z        PSCENC =       641.91652338
  Ewald energy   TEWEN  =    -16194.04033373
  -1/2 Hartree   DENC   =     -7042.40603321
  -exchange  EXHF       =         0.00000000
  -V(xc)+E(xc)   XCENC  =       441.58817180
  PAW double counting   =     20620.59756088   -21844.92604770
  entropy T*S    EENTRO =        -0.00734780
  eigenvalues    EBANDS =       456.69093487
  atomic energy  EATOM  =     22790.34483746
  ---------------------------------------------------
  free energy    TOTEN  =      -130.24173406 eV

  energy without entropy =     -130.23438626  energy(sigma->0) =     -130.23928479


--------------------------------------------------------------------------------------------------------




----------------------------------------- Iteration    1(   7)  ---------------------------------------


    POTLOK:  cpu time    0.03: real time    0.04
    SETDIJ:  cpu time    0.02: real time    0.01
    EDDIAG:  cpu time    0.91: real time    0.91
  RMM-DIIS:  cpu time    2.81: real time    2.82
    ORTHCH:  cpu time    0.27: real time    0.28
       DOS:  cpu time    0.01: real time    0.00
    CHARGE:  cpu time    0.23: real time    0.22
    MIXING:  cpu time    0.00: real time    0.00
    --------------------------------------------
      LOOP:  cpu time    4.28: real time    4.29

 eigenvalue-minimisations  :  3990
 total energy-change (2. order) : 0.2900541E+02  (-0.1133043E+02)
 number of electron     205.9998789 magnetization 
 augmentation part      112.6035366 magnetization 

 Broyden mixing:
  rms(total) = 0.37792E+00    rms(broyden)= 0.37725E+00
  rms(prec ) = 0.60718E+00
  weight for this iteration     100.00

 eigenvalues of (default mixing * dielectric matrix)
  average eigenvalue GAMMA=   1.0399
  0.6057  1.4742

 Free energy of the ion-electron system (eV)
  ---------------------------------------------------
  alpha Z        PSCENC =       641.91652338
  Ewald energy   TEWEN  =    -16194.04033373
  -1/2 Hartree   DENC   =     -7347.01085929
  -exchange  EXHF       =         0.00000000
  -V(xc)+E(xc)   XCENC  =       455.31905405
  PAW double counting   =     21492.02698856   -22847.35173559
  entropy T*S    EENTRO =        -0.02051502
  eigenvalues    EBANDS =       907.57971760
  atomic energy  EATOM  =     22790.34483746
  ---------------------------------------------------
  free energy    TOTEN  =      -101.23632258 eV

  energy without entropy =     -101.21580756  energy(sigma->0) =     -101.22948424


--------------------------------------------------------------------------------------------------------




----------------------------------------- Iteration    1(   8)  ---------------------------------------


    POTLOK:  cpu time    0.03: real time    0.04
    SETDIJ:  cpu time    0.02: real time    0.01
    EDDIAG:  cpu time    0.91: real time    0.91
  RMM-DIIS:  cpu time    2.81: real time    2.83
    ORTHCH:  cpu time    0.28: real time    0.28
       DOS:  cpu time    0.00: real time    0.00
    CHARGE:  cpu time    0.23: real time    0.23
    MIXING:  cpu time    0.00: real time    0.00
    --------------------------------------------
      LOOP:  cpu time    4.28: real time    4.30

 eigenvalue-minimisations  :  4005
 total energy-change (2. order) : 0.1838338E+00  (-0.6117000E+00)
 number of electron     205.9998808 magnetization 
 augmentation part      110.9426606 magnetization 

 Broyden mixing:
  rms(total) = 0.29355E+00    rms(broyden)= 0.29337E+00
  rms(prec ) = 0.46299E+00
  weight for this iteration     100.00

 eigenvalues of (default mixing * dielectric matrix)
  average eigenvalue GAMMA=   1.2346
  2.2026  0.7871  0.7142

 Free energy of the ion-electron system (eV)
  ---------------------------------------------------
  alpha Z        PSCENC =       641.91652338
  Ewald energy   TEWEN  =    -16194.04033373
  -1/2 Hartree   DENC   =     -7380.43712107
  -exchange  EXHF       =         0.00000000
  -V(xc)+E(xc)   XCENC  =       456.74860768
  PAW double counting   =     22322.42147717   -23715.51761785
  entropy T*S    EENTRO =        -0.02026498
  eigenvalues    EBANDS =       977.53140320
  atomic energy  EATOM  =     22790.34483746
  ---------------------------------------------------
  free energy    TOTEN  =      -101.05248874 eV

  energy without entropy =     -101.03222376  energy(sigma->0) =     -101.04573374


--------------------------------------------------------------------------------------------------------




----------------------------------------- Iteration    1(   9)  ---------------------------------------


    POTLOK:  cpu time    0.04: real time    0.04
    SETDIJ:  cpu time    0.02: real time    0.01
    EDDIAG:  cpu time    0.90: real time    0.91
  RMM-DIIS:  cpu time    3.13: real time    3.14
    ORTHCH:  cpu time    0.29: real time    0.29
       DOS:  cpu time    0.00: real time    0.00
    CHARGE:  cpu time    0.24: real time    0.23
    MIXING:  cpu time    0.00: real time    0.00
    --------------------------------------------
      LOOP:  cpu time    4.62: real time    4.64

 eigenvalue-minimisations  :  4010
 total energy-change (2. order) : 0.1293534E+00  (-0.3568952E-01)
 number of electron     205.9998799 magnetization 
 augmentation part      111.5205697 magnetization 

 Broyden mixing:
  rms(total) = 0.44715E-01    rms(broyden)= 0.44660E-01
  rms(prec ) = 0.77144E-01
  weight for this iteration     100.00

 eigenvalues of (default mixing * dielectric matrix)
  average eigenvalue GAMMA=   1.0979
  2.2232  0.7694  0.7694  0.6298

 Free energy of the ion-electron system (eV)
  ---------------------------------------------------
  alpha Z        PSCENC =       641.91652338
  Ewald energy   TEWEN  =    -16194.04033373
  -1/2 Hartree   DENC   =     -7342.49659884
  -exchange  EXHF       =         0.00000000
  -V(xc)+E(xc)   XCENC  =       455.20156257
  PAW double counting   =     23129.63471017   -24535.70889735
  entropy T*S    EENTRO =        -0.01943149
  eigenvalues    EBANDS =       954.24449246
  atomic energy  EATOM  =     22790.34483746
  ---------------------------------------------------
  free energy    TOTEN  =      -100.92313537 eV

  energy without entropy =     -100.90370388  energy(sigma->0) =     -100.91665821


--------------------------------------------------------------------------------------------------------




----------------------------------------- Iteration    1(  10)  ---------------------------------------


    POTLOK:  cpu time    0.04: real time    0.04
    SETDIJ:  cpu time    0.01: real time    0.01
    EDDIAG:  cpu time    0.95: real time    0.95
  RMM-DIIS:  cpu time    3.21: real time    3.22
    ORTHCH:  cpu time    0.29: real time    0.29
       DOS:  cpu time    0.00: real time    0.00
    CHARGE:  cpu time    0.23: real time    0.23
    MIXING:  cpu time    0.01: real time    0.00
    --------------------------------------------
      LOOP:  cpu time    4.75: real time    4.76

 eigenvalue-minimisations  :  4051
 total energy-change (2. order) : 0.7797352E-03  (-0.3409263E-02)
 number of electron     205.9998800 magnetization 
 augmentation part      111.5340258 magnetization 

 Broyden mixing:
  rms(total) = 0.31673E-01    rms(broyden)= 0.31663E-01
  rms(prec ) = 0.49183E-01
  weight for this iteration     100.00

 eigenvalues of (default mixing * dielectric matrix)
  average eigenvalue GAMMA=   1.3031
  2.2453  2.2453  0.9048  0.6756  0.4443

 Free energy of the ion-electron system (eV)
  ---------------------------------------------------
  alpha Z        PSCENC =       641.91652338
  Ewald energy   TEWEN  =    -16194.04033373
  -1/2 Hartree   DENC   =     -7341.28060502
  -exchange  EXHF       =         0.00000000
  -V(xc)+E(xc)   XCENC  =       455.18536326
  PAW double counting   =     23155.53498097   -24561.75372993
  entropy T*S    EENTRO =        -0.01935144
  eigenvalues    EBANDS =       953.18995940
  atomic energy  EATOM  =     22790.34483746
  ---------------------------------------------------
  free energy    TOTEN  =      -100.92235563 eV

  energy without entropy =     -100.90300420  energy(sigma->0) =     -100.91590515


--------------------------------------------------------------------------------------------------------




----------------------------------------- Iteration    1(  11)  ---------------------------------------


    POTLOK:  cpu time    0.04: real time    0.04
    SETDIJ:  cpu time    0.01: real time    0.01
    EDDIAG:  cpu time    0.95: real time    0.96
  RMM-DIIS:  cpu time    3.82: real time    3.83
    ORTHCH:  cpu time    0.29: real time    0.29
       DOS:  cpu time    0.00: real time    0.00
    CHARGE:  cpu time    0.23: real time    0.23
    MIXING:  cpu time    0.01: real time    0.00
    --------------------------------------------
      LOOP:  cpu time    5.35: real time    5.37

 eigenvalue-minimisations  :  4868
 total energy-change (2. order) : 0.6759057E-03  (-0.5208963E-03)
 number of electron     205.9998800 magnetization 
 augmentation part      111.5287677 magnetization 

 Broyden mixing:
  rms(total) = 0.20921E-01    rms(broyden)= 0.20919E-01
  rms(prec ) = 0.33318E-01
  weight for this iteration     100.00

 eigenvalues of (default mixing * dielectric matrix)
  average eigenvalue GAMMA=   1.3905
  2.6016  2.6016  1.1224  0.8703  0.6839  0.4634

 Free energy of the ion-electron system (eV)
  ---------------------------------------------------
  alpha Z        PSCENC =       641.91652338
  Ewald energy   TEWEN  =    -16194.04033373
  -1/2 Hartree   DENC   =     -7341.22364025
  -exchange  EXHF       =         0.00000000
  -V(xc)+E(xc)   XCENC  =       455.27388734
  PAW double counting   =     23152.44011143   -24558.46362720
  entropy T*S    EENTRO =        -0.01945784
  eigenvalues    EBANDS =       952.85001969
  atomic energy  EATOM  =     22790.34483746
  ---------------------------------------------------
  free energy    TOTEN  =      -100.92167973 eV

  energy without entropy =     -100.90222189  energy(sigma->0) =     -100.91519378


--------------------------------------------------------------------------------------------------------




----------------------------------------- Iteration    1(  12)  ---------------------------------------


    POTLOK:  cpu time    0.04: real time    0.04
    SETDIJ:  cpu time    0.01: real time    0.01
    EDDIAG:  cpu time    0.95: real time    0.96
  RMM-DIIS:  cpu time    3.20: real time    3.21
    ORTHCH:  cpu time    0.29: real time    0.29
       DOS:  cpu time    0.00: real time    0.00
    CHARGE:  cpu time    0.23: real time    0.23
    MIXING:  cpu time    0.01: real time    0.00
    --------------------------------------------
      LOOP:  cpu time    4.74: real time    4.75

 eigenvalue-minimisations  :  4025
 total energy-change (2. order) : 0.6898137E-03  (-0.4536743E-03)
 number of electron     205.9998799 magnetization 
 augmentation part      111.5950408 magnetization 

 Broyden mixing:
  rms(total) = 0.41664E-02    rms(broyden)= 0.41489E-02
  rms(prec ) = 0.66168E-02
  weight for this iteration     100.00

 eigenvalues of (default mixing * dielectric matrix)
  average eigenvalue GAMMA=   1.4236
  2.7580  2.3840  1.1169  0.8396  0.6870  0.4659  1.7136

 Free energy of the ion-electron system (eV)
  ---------------------------------------------------
  alpha Z        PSCENC =       641.91652338
  Ewald energy   TEWEN  =    -16194.04033373
  -1/2 Hartree   DENC   =     -7339.11806000
  -exchange  EXHF       =         0.00000000
  -V(xc)+E(xc)   XCENC  =       455.22490204
  PAW double counting   =     23139.08333335   -24544.31613400
  entropy T*S    EENTRO =        -0.01948135
  eigenvalues    EBANDS =       950.00342293
  atomic energy  EATOM  =     22790.34483746
  ---------------------------------------------------
  free energy    TOTEN  =      -100.92098991 eV

  energy without entropy =     -100.90150857  energy(sigma->0) =     -100.91449613


--------------------------------------------------------------------------------------------------------




----------------------------------------- Iteration    1(  13)  ---------------------------------------


    POTLOK:  cpu time    0.04: real time    0.04
    SETDIJ:  cpu time    0.00: real time    0.01
    EDDIAG:  cpu time    0.96: real time    0.96
  RMM-DIIS:  cpu time    3.91: real time    3.92
    ORTHCH:  cpu time    0.29: real time    0.29
       DOS:  cpu time    0.00: real time    0.00
    CHARGE:  cpu time    0.23: real time    0.23
    MIXING:  cpu time    0.00: real time    0.00
    --------------------------------------------
      LOOP:  cpu time    5.43: real time    5.46

 eigenvalue-minimisations  :  4952
 total energy-change (2. order) :-0.1977537E-04  (-0.4936841E-04)
 number of electron     205.9998799 magnetization 
 augmentation part      111.5974423 magnetization 

 Broyden mixing:
  rms(total) = 0.39538E-02    rms(broyden)= 0.39472E-02
  rms(prec ) = 0.64310E-02
  weight for this iteration     100.00

 eigenvalues of (default mixing * dielectric matrix)
  average eigenvalue GAMMA=   1.3942
  2.9380  2.5879  1.7410  1.1466  0.4654  0.6794  0.7978  0.7978

 Free energy of the ion-electron system (eV)
  ---------------------------------------------------
  alpha Z        PSCENC =       641.91652338
  Ewald energy   TEWEN  =    -16194.04033373
  -1/2 Hartree   DENC   =     -7339.20611652
  -exchange  EXHF       =         0.00000000
  -V(xc)+E(xc)   XCENC  =       455.22843391
  PAW double counting   =     23137.88392009   -24543.10459025
  entropy T*S    EENTRO =        -0.01946256
  eigenvalues    EBANDS =       950.07577852
  atomic energy  EATOM  =     22790.34483746
  ---------------------------------------------------
  free energy    TOTEN  =      -100.92100969 eV

  energy without entropy =     -100.90154713  energy(sigma->0) =     -100.91452217


--------------------------------------------------------------------------------------------------------




----------------------------------------- Iteration    1(  14)  ---------------------------------------


    POTLOK:  cpu time    0.04: real time    0.04
    SETDIJ:  cpu time    0.00: real time    0.01
    EDDIAG:  cpu time    0.96: real time    0.96
  RMM-DIIS:  cpu time    3.21: real time    3.22
    ORTHCH:  cpu time    0.29: real time    0.29
       DOS:  cpu time    0.00: real time    0.00
    CHARGE:  cpu time    0.23: real time    0.23
    MIXING:  cpu time    0.01: real time    0.00
    --------------------------------------------
      LOOP:  cpu time    4.75: real time    4.76

 eigenvalue-minimisations  :  4044
 total energy-change (2. order) : 0.3469064E-04  (-0.1157968E-04)
 number of electron     205.9998799 magnetization 
 augmentation part      111.5885101 magnetization 

 Broyden mixing:
  rms(total) = 0.85128E-03    rms(broyden)= 0.82158E-03
  rms(prec ) = 0.13298E-02
  weight for this iteration     100.00

 eigenvalues of (default mixing * dielectric matrix)
  average eigenvalue GAMMA=   1.4590
  3.1358  2.4890  1.6164  1.6164  0.4655  0.6852  0.8561  0.9725  1.2940

 Free energy of the ion-electron system (eV)
  ---------------------------------------------------
  alpha Z        PSCENC =       641.91652338
  Ewald energy   TEWEN  =    -16194.04033373
  -1/2 Hartree   DENC   =     -7339.72184195
  -exchange  EXHF       =         0.00000000
  -V(xc)+E(xc)   XCENC  =       455.24811145
  PAW double counting   =     23127.93984759   -24533.08823705
  entropy T*S    EENTRO =        -0.01945774
  eigenvalues    EBANDS =       950.49957559
  atomic energy  EATOM  =     22790.34483746
  ---------------------------------------------------
  free energy    TOTEN  =      -100.92097500 eV

  energy without entropy =     -100.90151726  energy(sigma->0) =     -100.91448909


--------------------------------------------------------------------------------------------------------




----------------------------------------- Iteration    1(  15)  ---------------------------------------


    POTLOK:  cpu time    0.04: real time    0.04
    SETDIJ:  cpu time    0.01: real time    0.01
    EDDIAG:  cpu time    0.96: real time    0.95
  RMM-DIIS:  cpu time    3.12: real time    3.13
    ORTHCH:  cpu time    0.29: real time    0.29
       DOS:  cpu time    0.01: real time    0.00
    CHARGE:  cpu time    0.23: real time    0.23
    MIXING:  cpu time    0.00: real time    0.00
    --------------------------------------------
      LOOP:  cpu time    4.66: real time    4.67

 eigenvalue-minimisations  :  3896
 total energy-change (2. order) :-0.7114159E-05  (-0.1204615E-05)
 number of electron     205.9998799 magnetization 
 augmentation part      111.5893381 magnetization 

 Broyden mixing:
  rms(total) = 0.11419E-02    rms(broyden)= 0.11204E-02
  rms(prec ) = 0.15990E-02
  weight for this iteration     100.00

 eigenvalues of (default mixing * dielectric matrix)
  average eigenvalue GAMMA=   1.5654
  4.0480  2.5200  1.9146  1.9146  1.4060  0.4655  0.6851  0.9517  0.8741  0.8741

 Free energy of the ion-electron system (eV)
  ---------------------------------------------------
  alpha Z        PSCENC =       641.91652338
  Ewald energy   TEWEN  =    -16194.04033373
  -1/2 Hartree   DENC   =     -7339.56766293
  -exchange  EXHF       =         0.00000000
  -V(xc)+E(xc)   XCENC  =       455.24129682
  PAW double counting   =     23130.91592706   -24536.16172555
  entropy T*S    EENTRO =        -0.01946021
  eigenvalues    EBANDS =       950.44961560
  atomic energy  EATOM  =     22790.34483746
  ---------------------------------------------------
  free energy    TOTEN  =      -100.92098211 eV

  energy without entropy =     -100.90152190  energy(sigma->0) =     -100.91449537


--------------------------------------------------------------------------------------------------------




----------------------------------------- Iteration    1(  16)  ---------------------------------------


    POTLOK:  cpu time    0.04: real time    0.04
    SETDIJ:  cpu time    0.01: real time    0.01
    EDDIAG:  cpu time    0.95: real time    0.96
  RMM-DIIS:  cpu time    2.76: real time    2.76
    ORTHCH:  cpu time    0.28: real time    0.29
       DOS:  cpu time    0.00: real time    0.00
    CHARGE:  cpu time    0.24: real time    0.23
    MIXING:  cpu time    0.00: real time    0.00
    --------------------------------------------
      LOOP:  cpu time    4.28: real time    4.30

 eigenvalue-minimisations  :  3376
 total energy-change (2. order) : 0.1656594E-05  (-0.5976175E-06)
 number of electron     205.9998799 magnetization 
 augmentation part      111.5871787 magnetization 

 Broyden mixing:
  rms(total) = 0.35615E-03    rms(broyden)= 0.27984E-03
  rms(prec ) = 0.45518E-03
  weight for this iteration     100.00
  WARNING: grid for Broyden might be to small

 eigenvalues of (default mixing * dielectric matrix)
  average eigenvalue GAMMA=   1.4471
  2.6637  2.3658  2.3658  1.5325  1.5325  1.4804  0.4655  0.6851  1.0380  0.8670
  0.9224

 Free energy of the ion-electron system (eV)
  ---------------------------------------------------
  alpha Z        PSCENC =       641.91652338
  Ewald energy   TEWEN  =    -16194.04033373
  -1/2 Hartree   DENC   =     -7339.64544119
  -exchange  EXHF       =         0.00000000
  -V(xc)+E(xc)   XCENC  =       455.24445683
  PAW double counting   =     23127.45347429   -24532.70562493
  entropy T*S    EENTRO =        -0.01946049
  eigenvalues    EBANDS =       950.53058793
  atomic energy  EATOM  =     22790.34483746
  ---------------------------------------------------
  free energy    TOTEN  =      -100.92098046 eV

  energy without entropy =     -100.90151996  energy(sigma->0) =     -100.91449362


--------------------------------------------------------------------------------------------------------




----------------------------------------- Iteration    1(  17)  ---------------------------------------


    POTLOK:  cpu time    0.04: real time    0.04
    SETDIJ:  cpu time    0.01: real time    0.01
    EDDIAG:  cpu time    0.95: real time    0.95
  RMM-DIIS:  cpu time    1.90: real time    1.90
    ORTHCH:  cpu time    0.28: real time    0.29
       DOS:  cpu time    0.01: real time    0.00
    CHARGE:  cpu time    0.23: real time    0.23
    MIXING:  cpu time    0.00: real time    0.00
    --------------------------------------------
      LOOP:  cpu time    3.43: real time    3.44

 eigenvalue-minimisations  :  2247
 total energy-change (2. order) :-0.1463668E-05  (-0.1440787E-06)
 number of electron     205.9998799 magnetization 
 augmentation part      111.5873594 magnetization 

 Broyden mixing:
  rms(total) = 0.56422E-03    rms(broyden)= 0.51949E-03
  rms(prec ) = 0.54520E-03
  weight for this iteration     100.00

 eigenvalues of (default mixing * dielectric matrix)
  average eigenvalue GAMMA=   1.3590
  2.6855  2.4253  2.4253  1.5848  1.5848  1.4549  0.4655  0.6851  0.8662  0.9257
  1.0293  0.1753

 Free energy of the ion-electron system (eV)
  ---------------------------------------------------
  alpha Z        PSCENC =       641.91652338
  Ewald energy   TEWEN  =    -16194.04033373
  -1/2 Hartree   DENC   =     -7339.62191837
  -exchange  EXHF       =         0.00000000
  -V(xc)+E(xc)   XCENC  =       455.24235876
  PAW double counting   =     23128.86920532   -24534.14284810
  entropy T*S    EENTRO =        -0.01945838
  eigenvalues    EBANDS =       950.53065175
  atomic energy  EATOM  =     22790.34483746
  ---------------------------------------------------
  free energy    TOTEN  =      -100.92098192 eV

  energy without entropy =     -100.90152354  energy(sigma->0) =     -100.91449579


--------------------------------------------------------------------------------------------------------




----------------------------------------- Iteration    1(  18)  ---------------------------------------


    POTLOK:  cpu time    0.04: real time    0.04
    SETDIJ:  cpu time    0.01: real time    0.01
    EDDIAG:  cpu time    0.95: real time    0.96
  RMM-DIIS:  cpu time    1.74: real time    1.74
    ORTHCH:  cpu time    0.27: real time    0.28
       DOS:  cpu time    0.01: real time    0.00
    --------------------------------------------
      LOOP:  cpu time    3.03: real time    3.04

 eigenvalue-minimisations  :  2204
 total energy-change (2. order) :-0.1721673E-06  (-0.5953135E-07)
 number of electron     205.9998799 magnetization 
 augmentation part      111.5873594 magnetization 

 Free energy of the ion-electron system (eV)
  ---------------------------------------------------
  alpha Z        PSCENC =       641.91652338
  Ewald energy   TEWEN  =    -16194.04033373
  -1/2 Hartree   DENC   =     -7339.62633675
  -exchange  EXHF       =         0.00000000
  -V(xc)+E(xc)   XCENC  =       455.24247120
  PAW double counting   =     23127.68074422   -24532.95845250
  entropy T*S    EENTRO =        -0.01945836
  eigenvalues    EBANDS =       950.53902298
  atomic energy  EATOM  =     22790.34483746
  ---------------------------------------------------
  free energy    TOTEN  =      -100.92098209 eV

  energy without entropy =     -100.90152374  energy(sigma->0) =     -100.91449597


--------------------------------------------------------------------------------------------------------




 average (electrostatic) potential at core
  the test charge radii are     0.9430  1.0406
  (the norm of the test charge is              1.0000)
       1 -63.4939       2 -63.4939       3 -63.4939       4 -63.4939       5 -63.5031
       6 -63.5031       7 -63.5031       8 -63.5031       9 -63.5031      10 -63.5031
      11 -63.5031      12 -63.5031      13 -63.5031      14 -63.5031      15 -63.5031
      16 -63.5031      17 -71.9358      18 -71.9358      19 -71.9358      20 -71.9358
      21 -72.1039      22 -72.1040      23 -72.1040      24 -72.1039      25 -72.1039
      26 -72.1040
 
 
 
 E-fermi :   8.6654     XC(G=0): -11.7685     alpha+bet :-14.7768


 k-point   1 :       0.0000    0.0000    0.0000
  band No.  band energies     occupation 
      1      -2.3843      2.00000
      2       0.5713      2.00000
      3       0.5713      2.00000
      4       0.5713      2.00000
      5       0.8987      2.00000
      6       0.8987      2.00000
      7       1.6748      2.00000
      8       1.6749      2.00000
      9       1.6749      2.00000
     10       1.7072      2.00000
     11       1.7695      2.00000
     12       1.7695      2.00000
     13       1.7696      2.00000
     14       3.0774      2.00000
     15       3.4243      2.00000
     16       3.4243      2.00000
     17       3.4243      2.00000
     18       3.8720      2.00000
     19       3.8720      2.00000
     20       3.8987      2.00000
     21       3.9791      2.00000
     22       3.9791      2.00000
     23       3.9792      2.00000
     24       3.9841      2.00000
     25       3.9841      2.00000
     26       3.9841      2.00000
     27       4.1843      2.00000
     28       4.1913      2.00000
     29       4.1913      2.00000
     30       4.1914      2.00000
     31       4.2977      2.00000
     32       4.2977      2.00000
     33       4.2977      2.00000
     34       4.3988      2.00000
     35       4.3988      2.00000
     36       4.4139      2.00000
     37       4.4139      2.00000
     38       4.4140      2.00000
     39       4.5037      2.00000
     40       4.5037      2.00000
     41       4.5038      2.00000
     42       4.5049      2.00000
     43       4.5049      2.00000
     44       4.6704      2.00000
     45       4.6704      2.00000
     46       4.6705      2.00000
     47       4.7402      2.00000
     48       4.7441      2.00000
     49       4.8318      2.00000
     50       4.8318      2.00000
     51       4.8318      2.00000
     52       4.8663      2.00000
     53       4.8663      2.00000
     54       4.9574      2.00000
     55       4.9987      2.00000
     56       4.9988      2.00000
     57       4.9988      2.00000
     58       5.0115      2.00000
     59       5.0115      2.00000
     60       5.0116      2.00000
     61       5.0867      2.00000
     62       5.0867      2.00000
     63       5.1710      2.00000
     64       5.1710      2.00000
     65       5.1711      2.00000
     66       5.1731      2.00000
     67       5.1731      2.00000
     68       5.1731      2.00000
     69       5.3190      2.00000
     70       5.3190      2.00000
     71       5.3893      2.00000
     72       5.3893      2.00000
     73       5.3893      2.00000
     74       5.4919      2.00000
     75       5.4919      2.00000
     76       5.4919      2.00000
     77       5.5078      2.00000
     78       5.5078      2.00000
     79       5.5078      2.00000
     80       5.5384      2.00000
     81       5.5384      2.00000
     82       5.5385      2.00000
     83       5.6973      2.00000
     84       5.6974      2.00000
     85       5.6974      2.00000
     86       5.7166      2.00000
     87       5.7166      2.00000
     88       5.7167      2.00000
     89       5.8001      2.00000
     90       5.8001      2.00000
     91       5.8340      2.00000
     92       5.8341      2.00000
     93       5.8341      2.00000
     94       6.7613      2.00000
     95       6.7613      2.00000
     96       7.0628      2.00000
     97       7.0628      2.00000
     98       7.0629      2.00000
     99       7.2038      2.00000
    100       9.1763     -0.00181
    101       9.1763     -0.00181
    102       9.1763     -0.00181
    103       9.6197      0.00000
    104       9.6197      0.00000
    105       9.9310      0.00000
    106       9.9310      0.00000
    107       9.9818      0.00000
    108       9.9818      0.00000
    109       9.9819      0.00000
    110      10.2123      0.00000
    111      10.2123      0.00000
    112      10.2123      0.00000
    113      10.9664      0.00000
    114      10.9665      0.00000
    115      10.9665      0.00000
    116      11.0206      0.00000
    117      11.0206      0.00000
    118      11.0207      0.00000
    119      11.1174      0.00000
    120      12.1352      0.00000
    121      12.3537      0.00000
    122      12.3537      0.00000
    123      12.3538      0.00000
    124      13.7817      0.00000

 k-point   2 :       0.1667    0.0000    0.0000
  band No.  band energies     occupation 
      1      -2.2766      2.00000
      2       0.0896      2.00000
      3       0.4014      2.00000
      4       0.4089      2.00000
      5       0.7483      2.00000
      6       0.9318      2.00000
      7       1.4171      2.00000
      8       1.4749      2.00000
      9       1.7714      2.00000
     10       1.9828      2.00000
     11       2.1916      2.00000
     12       2.2889      2.00000
     13       2.4832      2.00000
     14       2.9079      2.00000
     15       3.2070      2.00000
     16       3.4498      2.00000
     17       3.5065      2.00000
     18       3.7932      2.00000
     19       3.7979      2.00000
     20       3.8235      2.00000
     21       3.9233      2.00000
     22       3.9581      2.00000
     23       3.9799      2.00000
     24       4.0007      2.00000
     25       4.0612      2.00000
     26       4.0711      2.00000
     27       4.1811      2.00000
     28       4.1886      2.00000
     29       4.1939      2.00000
     30       4.2087      2.00000
     31       4.2658      2.00000
     32       4.2677      2.00000
     33       4.3181      2.00000
     34       4.3526      2.00000
     35       4.3731      2.00000
     36       4.4198      2.00000
     37       4.4614      2.00000
     38       4.4642      2.00000
     39       4.4814      2.00000
     40       4.5031      2.00000
     41       4.5151      2.00000
     42       4.5569      2.00000
     43       4.5634      2.00000
     44       4.6580      2.00000
     45       4.6669      2.00000
     46       4.6820      2.00000
     47       4.7070      2.00000
     48       4.7753      2.00000
     49       4.7852      2.00000
     50       4.8016      2.00000
     51       4.8024      2.00000
     52       4.8211      2.00000
     53       4.8395      2.00000
     54       4.9564      2.00000
     55       4.9731      2.00000
     56       4.9944      2.00000
     57       4.9969      2.00000
     58       5.0149      2.00000
     59       5.0329      2.00000
     60       5.0351      2.00000
     61       5.0816      2.00000
     62       5.1172      2.00000
     63       5.1360      2.00000
     64       5.1422      2.00000
     65       5.1761      2.00000
     66       5.1817      2.00000
     67       5.1933      2.00000
     68       5.2034      2.00000
     69       5.3230      2.00000
     70       5.3417      2.00000
     71       5.4112      2.00000
     72       5.4153      2.00000
     73       5.4273      2.00000
     74       5.4445      2.00000
     75       5.4628      2.00000
     76       5.4879      2.00000
     77       5.5180      2.00000
     78       5.5220      2.00000
     79       5.5330      2.00000
     80       5.5546      2.00000
     81       5.5577      2.00000
     82       5.5659      2.00000
     83       5.6793      2.00000
     84       5.6924      2.00000
     85       5.7072      2.00000
     86       5.7084      2.00000
     87       5.7284      2.00000
     88       5.7305      2.00000
     89       5.7685      2.00000
     90       5.7740      2.00000
     91       5.8639      2.00000
     92       5.8918      2.00000
     93       5.9884      2.00000
     94       6.3133      2.00000
     95       6.3392      2.00000
     96       6.9418      2.00000
     97       7.1277      2.00000
     98       7.7077      2.00000
     99       7.8879      2.00000
    100       8.4195      2.07091
    101       8.6192      1.38006
    102       8.7849      0.16220
    103       8.9387     -0.06584
    104       9.0088     -0.03565
    105       9.1437     -0.00371
    106       9.2053     -0.00091
    107       9.7865      0.00000
    108      10.1884      0.00000
    109      10.2326      0.00000
    110      10.4206      0.00000
    111      10.5898      0.00000
    112      10.6376      0.00000
    113      10.8492      0.00000
    114      11.1453      0.00000
    115      11.1876      0.00000
    116      11.4022      0.00000
    117      11.6484      0.00000
    118      11.8118      0.00000
    119      12.0577      0.00000
    120      12.4884      0.00000
    121      12.6321      0.00000
    122      12.7815      0.00000
    123      12.9437      0.00000
    124      12.9878      0.00000

 k-point   3 :       0.3333    0.0000    0.0000
  band No.  band energies     occupation 
      1      -1.9571      2.00000
      2      -0.7182      2.00000
      3       0.2010      2.00000
      4       0.2016      2.00000
      5       0.5712      2.00000
      6       0.7792      2.00000
      7       1.5896      2.00000
      8       1.6003      2.00000
      9       2.0729      2.00000
     10       2.4070      2.00000
     11       2.6359      2.00000
     12       2.7239      2.00000
     13       2.7868      2.00000
     14       3.0324      2.00000
     15       3.1875      2.00000
     16       3.4903      2.00000
     17       3.5467      2.00000
     18       3.6570      2.00000
     19       3.7311      2.00000
     20       3.7906      2.00000
     21       3.7959      2.00000
     22       3.8888      2.00000
     23       3.9812      2.00000
     24       4.0015      2.00000
     25       4.0828      2.00000
     26       4.1068      2.00000
     27       4.1598      2.00000
     28       4.1873      2.00000
     29       4.2001      2.00000
     30       4.2285      2.00000
     31       4.2562      2.00000
     32       4.2816      2.00000
     33       4.3372      2.00000
     34       4.3547      2.00000
     35       4.3589      2.00000
     36       4.3846      2.00000
     37       4.4435      2.00000
     38       4.4488      2.00000
     39       4.4534      2.00000
     40       4.5011      2.00000
     41       4.5314      2.00000
     42       4.5324      2.00000
     43       4.5723      2.00000
     44       4.5932      2.00000
     45       4.6395      2.00000
     46       4.6824      2.00000
     47       4.7111      2.00000
     48       4.7296      2.00000
     49       4.7334      2.00000
     50       4.7682      2.00000
     51       4.7889      2.00000
     52       4.8591      2.00000
     53       4.9263      2.00000
     54       4.9388      2.00000
     55       4.9684      2.00000
     56       4.9738      2.00000
     57       5.0167      2.00000
     58       5.0169      2.00000
     59       5.0728      2.00000
     60       5.0910      2.00000
     61       5.1091      2.00000
     62       5.1200      2.00000
     63       5.1235      2.00000
     64       5.1704      2.00000
     65       5.1906      2.00000
     66       5.2310      2.00000
     67       5.2432      2.00000
     68       5.2563      2.00000
     69       5.2837      2.00000
     70       5.3523      2.00000
     71       5.3907      2.00000
     72       5.3977      2.00000
     73       5.4235      2.00000
     74       5.4601      2.00000
     75       5.4680      2.00000
     76       5.4987      2.00000
     77       5.5101      2.00000
     78       5.5112      2.00000
     79       5.5189      2.00000
     80       5.5945      2.00000
     81       5.6100      2.00000
     82       5.6207      2.00000
     83       5.6539      2.00000
     84       5.6615      2.00000
     85       5.6731      2.00000
     86       5.7485      2.00000
     87       5.7747      2.00000
     88       5.7948      2.00000
     89       5.8137      2.00000
     90       5.8666      2.00000
     91       5.9211      2.00000
     92       5.9848      2.00000
     93       6.0192      2.00000
     94       6.0548      2.00000
     95       6.3653      2.00000
     96       6.9010      2.00000
     97       7.2709      2.00000
     98       7.3406      2.00000
     99       7.4566      2.00000
    100       7.5676      2.00000
    101       7.5725      2.00000
    102       8.5227      1.92923
    103       8.5590      1.77471
    104       8.6585      1.05869
    105       9.0112     -0.03461
    106       9.5184      0.00000
    107       9.8652      0.00000
    108       9.8956      0.00000
    109      10.2257      0.00000
    110      10.4986      0.00000
    111      10.7586      0.00000
    112      10.9318      0.00000
    113      10.9979      0.00000
    114      11.3357      0.00000
    115      11.3942      0.00000
    116      11.6332      0.00000
    117      12.0493      0.00000
    118      12.1560      0.00000
    119      12.3324      0.00000
    120      12.4063      0.00000
    121      12.5343      0.00000
    122      12.6232      0.00000
    123      13.0038      0.00000
    124      13.5122      0.00000

 k-point   4 :       0.5000    0.0000    0.0000
  band No.  band energies     occupation 
      1      -1.5022      2.00000
      2      -1.3529      2.00000
      3       0.1221      2.00000
      4       0.1270      2.00000
      5       0.4976      2.00000
      6       0.6978      2.00000
      7       1.8138      2.00000
      8       1.8981      2.00000
      9       1.9506      2.00000
     10       2.1820      2.00000
     11       2.8438      2.00000
     12       2.9136      2.00000
     13       3.1489      2.00000
     14       3.2358      2.00000
     15       3.2490      2.00000
     16       3.4276      2.00000
     17       3.5625      2.00000
     18       3.6250      2.00000
     19       3.7296      2.00000
     20       3.7395      2.00000
     21       3.7821      2.00000
     22       3.8632      2.00000
     23       3.8780      2.00000
     24       4.0450      2.00000
     25       4.1025      2.00000
     26       4.1257      2.00000
     27       4.1259      2.00000
     28       4.1625      2.00000
     29       4.2087      2.00000
     30       4.2240      2.00000
     31       4.2499      2.00000
     32       4.2965      2.00000
     33       4.3102      2.00000
     34       4.3449      2.00000
     35       4.3566      2.00000
     36       4.3863      2.00000
     37       4.4107      2.00000
     38       4.4264      2.00000
     39       4.4478      2.00000
     40       4.4676      2.00000
     41       4.4708      2.00000
     42       4.5289      2.00000
     43       4.5295      2.00000
     44       4.5679      2.00000
     45       4.6179      2.00000
     46       4.6840      2.00000
     47       4.6883      2.00000
     48       4.7598      2.00000
     49       4.7599      2.00000
     50       4.7827      2.00000
     51       4.7890      2.00000
     52       4.8767      2.00000
     53       4.9490      2.00000
     54       4.9526      2.00000
     55       4.9662      2.00000
     56       4.9674      2.00000
     57       5.0316      2.00000
     58       5.0375      2.00000
     59       5.0800      2.00000
     60       5.1100      2.00000
     61       5.1534      2.00000
     62       5.1651      2.00000
     63       5.1676      2.00000
     64       5.1780      2.00000
     65       5.1784      2.00000
     66       5.2240      2.00000
     67       5.2610      2.00000
     68       5.2620      2.00000
     69       5.2861      2.00000
     70       5.3434      2.00000
     71       5.3902      2.00000
[...]
    105       8.6592      0.91702
    106       9.0867     -0.00836
    107       9.2533     -0.00017
    108       9.6681      0.00000
    109       9.7520      0.00000
    110       9.8059      0.00000
    111       9.8717      0.00000
    112      10.2083      0.00000
    113      10.2269      0.00000
    114      10.3971      0.00000
    115      10.4836      0.00000
    116      10.5925      0.00000
    117      10.7190      0.00000
    118      11.1220      0.00000
    119      13.0465      0.00000
    120      13.2103      0.00000
    121      13.4398      0.00000
    122      13.7759      0.00000
    123      13.9206      0.00000
    124      13.9983      0.00000

 k-point  16 :       0.5000    0.5000    0.5000
  band No.  band energies     occupation 
      1      -0.8528      2.00000
      2      -0.4750      2.00000
      3      -0.4750      2.00000
      4      -0.4750      2.00000
      5      -0.3900      2.00000
      6      -0.3900      2.00000
      7       2.1772      2.00000
      8       2.1772      2.00000
      9       2.1773      2.00000
     10       2.2708      2.00000
     11       3.0644      2.00000
     12       3.2342      2.00000
     13       3.2342      2.00000
     14       3.2342      2.00000
     15       3.5798      2.00000
     16       3.5798      2.00000
     17       3.5799      2.00000
     18       3.7752      2.00000
     19       3.7752      2.00000
     20       4.0370      2.00000
     21       4.0370      2.00000
     22       4.0370      2.00000
     23       4.1025      2.00000
     24       4.1025      2.00000
     25       4.1345      2.00000
     26       4.1345      2.00000
     27       4.1345      2.00000
     28       4.2152      2.00000
     29       4.2153      2.00000
     30       4.2153      2.00000
     31       4.2540      2.00000
     32       4.2541      2.00000
     33       4.2541      2.00000
     34       4.2571      2.00000
     35       4.2571      2.00000
     36       4.3699      2.00000
     37       4.3699      2.00000
     38       4.3699      2.00000
     39       4.4510      2.00000
     40       4.4510      2.00000
     41       4.4677      2.00000
     42       4.4677      2.00000
     43       4.4677      2.00000
     44       4.4975      2.00000
     45       4.5807      2.00000
     46       4.5807      2.00000
     47       4.5808      2.00000
     48       4.6740      2.00000
     49       4.6740      2.00000
     50       4.6740      2.00000
     51       4.7069      2.00000
     52       4.7070      2.00000
     53       4.7070      2.00000
     54       4.7668      2.00000
     55       4.7915      2.00000
     56       4.7915      2.00000
     57       4.9429      2.00000
     58       4.9429      2.00000
     59       4.9430      2.00000
     60       5.0829      2.00000
     61       5.0830      2.00000
     62       5.0830      2.00000
     63       5.1377      2.00000
     64       5.1377      2.00000
     65       5.1378      2.00000
     66       5.2529      2.00000
     67       5.2529      2.00000
     68       5.2847      2.00000
     69       5.4344      2.00000
     70       5.4344      2.00000
     71       5.4344      2.00000
     72       5.4519      2.00000
     73       5.4519      2.00000
     74       5.4519      2.00000
     75       5.4731      2.00000
     76       5.4731      2.00000
     77       5.4732      2.00000
     78       5.5487      2.00000
     79       5.5487      2.00000
     80       5.5488      2.00000
     81       5.5942      2.00000
     82       5.5942      2.00000
     83       5.7133      2.00000
     84       5.7612      2.00000
     85       5.7612      2.00000
     86       5.7613      2.00000
     87       5.8609      2.00000
     88       5.8609      2.00000
     89       5.8610      2.00000
     90       6.1177      2.00000
     91       6.2777      2.00000
     92       6.6902      2.00000
     93       6.6902      2.00000
     94       6.6903      2.00000
     95       6.7232      2.00000
     96       6.7232      2.00000
     97       6.7400      2.00000
     98       6.7400      2.00000
     99       6.7400      2.00000
    100       8.5497      1.73833
    101       8.5497      1.73814
    102       8.5497      1.73813
    103       8.7527      0.24184
    104       8.7527      0.24181
    105       8.7527      0.24176
    106       9.0202     -0.02486
    107       9.1022     -0.00621
    108       9.3158     -0.00003
    109       9.3158     -0.00003
    110       9.3158     -0.00003
    111       9.3572     -0.00001
    112       9.3572     -0.00001
    113       9.9320      0.00000
    114       9.9320      0.00000
    115       9.9320      0.00000
    116      10.0527      0.00000
    117      10.0528      0.00000
    118      10.0528      0.00000
    119      14.3704      0.00000
    120      14.3704      0.00000
    121      14.3704      0.00000
    122      14.4453      0.00000
    123      14.4453      0.00000
    124      14.9949      0.00000


--------------------------------------------------------------------------------------------------------


 soft charge-density along one line, spin component           1
         0         1         2         3         4         5         6         7         8         9
 total charge-density along one line
 
 pseudopotential strength for first ion, spin component:           1
 -2.785   0.032  -0.040   0.032   0.000  -4.799  -0.025   0.030
  0.032  -2.785   0.020   0.032  -0.034  -0.025  -4.799  -0.015
 -0.040   0.020  -2.784   0.020   0.000   0.030  -0.015  -4.800
  0.032   0.032   0.020  -2.785   0.034  -0.025  -0.025  -0.015
  0.000  -0.034   0.000   0.034  -2.784   0.000   0.026   0.000
 -4.799  -0.025   0.030  -0.025   0.000  10.334   0.017  -0.020
 -0.025  -4.799  -0.015  -0.025   0.026   0.017  10.334   0.010
  0.030  -0.015  -4.800  -0.015   0.000  -0.020   0.010  10.335
 -0.025  -0.025  -0.015  -4.799  -0.026   0.017   0.017   0.010
  0.000   0.026   0.000  -0.026  -4.800   0.000  -0.018   0.000
 -0.008  -0.008   0.000  -0.008   0.000   0.002   0.002   0.000
 -0.014  -0.014   0.000  -0.014   0.000   0.003   0.003   0.000
  0.001   0.001  -0.001   0.000  -0.002  -0.002  -0.002   0.001
  0.000   0.001   0.003   0.001   0.000   0.000  -0.002  -0.002
  0.001   0.000  -0.001   0.001   0.002  -0.002   0.000   0.001
  0.002   0.002  -0.002   0.000  -0.003  -0.002  -0.002   0.001
  0.000   0.002   0.003   0.002   0.000   0.001  -0.002  -0.002
  0.002   0.000  -0.002   0.002   0.003  -0.002   0.001   0.001
 total augmentation occupancy for first ion, spin component:           1
  1.914   0.007  -0.003   0.007   0.000  -0.019  -0.006   0.010  -0.006   0.000  -0.012   0.001  -0.009   0.005  -0.009   0.002
  0.007   1.914   0.002   0.007  -0.003  -0.006  -0.019  -0.005  -0.006   0.009  -0.012   0.001  -0.009  -0.009   0.005   0.002
 -0.003   0.002   1.919   0.002   0.000   0.010  -0.005  -0.019  -0.005   0.000   0.000   0.000  -0.002   0.005  -0.002  -0.001
  0.007   0.007   0.002   1.914   0.003  -0.006  -0.006  -0.005  -0.019  -0.009  -0.012   0.001   0.005  -0.009  -0.009   0.001
  0.000  -0.003   0.000   0.003   1.919   0.000   0.009   0.000  -0.009  -0.019   0.000   0.000  -0.004   0.000   0.004  -0.002
 -0.019  -0.006   0.010  -0.006   0.000   0.017  -0.001  -0.001  -0.001   0.000  -0.027   0.002  -0.004   0.001  -0.004   0.000
 -0.006  -0.019  -0.005  -0.006   0.009  -0.001   0.017   0.000  -0.001  -0.001  -0.027   0.002  -0.004  -0.004   0.001   0.000
  0.010  -0.005  -0.019  -0.005   0.000  -0.001   0.000   0.014   0.000   0.000   0.000   0.000   0.001  -0.002   0.001   0.000
 -0.006  -0.006  -0.005  -0.019  -0.009  -0.001  -0.001   0.000   0.017   0.001  -0.027   0.002   0.001  -0.004  -0.004   0.000
  0.000   0.009   0.000  -0.009  -0.019   0.000  -0.001   0.000   0.001   0.014   0.000   0.000   0.002   0.000  -0.002   0.000
 -0.012  -0.012   0.000  -0.012   0.000  -0.027  -0.027   0.000  -0.027   0.000   1.769  -0.162  -0.022  -0.022  -0.022   0.003
  0.001   0.001   0.000   0.001   0.000   0.002   0.002   0.000   0.002   0.000  -0.162   0.025   0.003   0.003   0.003   0.000
 -0.009  -0.009  -0.002   0.005  -0.004  -0.004  -0.004   0.001   0.001   0.002  -0.022   0.003   0.264  -0.025  -0.025  -0.016
  0.005  -0.009   0.005  -0.009   0.000   0.001  -0.004  -0.002  -0.004   0.000  -0.022   0.003  -0.025   0.264  -0.025   0.001
 -0.009   0.005  -0.002  -0.009   0.004  -0.004   0.001   0.001  -0.004  -0.002  -0.022   0.003  -0.025  -0.025   0.264   0.001
  0.002   0.002  -0.001   0.001  -0.002   0.000   0.000   0.000   0.000   0.000   0.003   0.000  -0.016   0.001   0.001   0.001
  0.001   0.002   0.003   0.002   0.000   0.000   0.000   0.000   0.000   0.000   0.003   0.000   0.001  -0.016   0.001   0.000
  0.002   0.001  -0.001   0.002   0.002   0.000   0.000   0.000   0.000   0.000   0.003   0.000   0.001   0.001  -0.016   0.000


------------------------ aborting loop because EDIFF is reached ----------------------------------------


    CHARGE:  cpu time    0.23: real time    0.22
    FORLOC:  cpu time    0.01: real time    0.01
    FORNL :  cpu time    1.62: real time    1.62
    STRESS:  cpu time    4.85: real time    4.86
    FORCOR:  cpu time    0.05: real time    0.05
    FORHAR:  cpu time    0.02: real time    0.02
    MIXING:  cpu time    0.00: real time    0.00

  FORCE on cell =-STRESS in cart. coord.  units (eV):
  Direction    XX          YY          ZZ          XY          YZ          ZX
  --------------------------------------------------------------------------------------
  Alpha Z   641.33201   641.33201   641.33201
  Ewald   -5397.24467 -5397.24467 -5397.24467     0.00000     0.00000     0.00000
  Hartree  2446.66341  2446.66341  2446.66342    -0.00006    -0.00004    -0.00004
  E(xc)   -1117.35070 -1117.35070 -1117.35058    -0.00318    -0.00278    -0.00278
  Local     464.48079   464.48079   464.48210    -0.03256    -0.02768    -0.02768
  n-local  -148.19538  -149.72617  -148.15617    -0.00529     2.18734     1.04479
  augment  1512.05261  1512.05259  1512.05164     0.02739     0.02125     0.02125
  Kinetic  1600.51700  1595.81784  1600.15666    -1.04642     8.23504     4.23130
  Fock        0.00000     0.00000     0.00000     0.00000     0.00000     0.00000
  -------------------------------------------------------------------------------------
  Total       0.07153     0.07153     0.07153     0.00000     0.00000     0.00000
  in kB       0.33900     0.33900     0.33900     0.00000     0.00000     0.00000
  external pressure =        0.34 kB  Pullay stress =        0.00 kB


 VOLUME and BASIS-vectors are now :
 -----------------------------------------------------------------------------
  energy-cutoff  :      295.45
  volume of cell :      338.09
      direct lattice vectors                 reciprocal lattice vectors
    -4.388568447  4.388568447  4.388568447     0.000000000  0.113932369  0.113932369
     4.388568447 -4.388568447  4.388568447     0.113932369  0.000000000  0.113932369
     4.388568447  4.388568447 -4.388568447     0.113932369  0.113932369  0.000000000

  length of vectors
     7.601223522  7.601223522  7.601223522     0.161124702  0.161124702  0.161124702


 FORCES acting on ions
    electron-ion (+dipol)            ewald-force                    non-local-force                 convergence-correction
 -----------------------------------------------------------------------------------------------
   -.199E+02 -.199E+02 -.199E+02   0.195E+02 0.195E+02 0.195E+02   0.422E+00 0.422E+00 0.422E+00   -.461E-03 -.461E-03 -.461E-03
   -.199E+02 0.199E+02 0.199E+02   0.195E+02 -.195E+02 -.195E+02   0.422E+00 -.422E+00 -.422E+00   -.468E-03 0.466E-03 0.466E-03
   0.199E+02 0.199E+02 -.199E+02   -.195E+02 -.195E+02 0.195E+02   -.422E+00 -.422E+00 0.422E+00   0.466E-03 0.466E-03 -.468E-03
   0.199E+02 -.199E+02 0.199E+02   -.195E+02 0.195E+02 -.195E+02   -.422E+00 0.422E+00 -.422E+00   0.466E-03 -.468E-03 0.466E-03
   -.867E+01 -.867E+01 -.689E+01   0.841E+01 0.841E+01 0.669E+01   0.263E+00 0.263E+00 0.195E+00   0.342E-03 0.342E-03 -.952E-04
   -.867E+01 0.867E+01 0.689E+01   0.841E+01 -.841E+01 -.669E+01   0.263E+00 -.263E+00 -.195E+00   0.341E-03 -.342E-03 0.959E-04
   0.867E+01 0.867E+01 -.689E+01   -.841E+01 -.841E+01 0.669E+01   -.263E+00 -.263E+00 0.195E+00   -.343E-03 -.343E-03 -.975E-04
   0.867E+01 -.867E+01 0.689E+01   -.841E+01 0.841E+01 -.669E+01   -.263E+00 0.263E+00 -.195E+00   -.342E-03 0.341E-03 0.959E-04
   0.867E+01 -.689E+01 0.867E+01   -.841E+01 0.669E+01 -.841E+01   -.263E+00 0.195E+00 -.263E+00   -.343E-03 -.975E-04 -.343E-03
   0.867E+01 0.689E+01 -.867E+01   -.841E+01 -.669E+01 0.841E+01   -.263E+00 -.195E+00 0.263E+00   -.342E-03 0.959E-04 0.341E-03
   0.689E+01 0.867E+01 -.867E+01   -.669E+01 -.841E+01 0.841E+01   -.195E+00 -.263E+00 0.263E+00   0.959E-04 -.342E-03 0.341E-03
   -.689E+01 0.867E+01 0.867E+01   0.669E+01 -.841E+01 -.841E+01   0.195E+00 -.263E+00 -.263E+00   -.975E-04 -.343E-03 -.343E-03
   -.689E+01 -.867E+01 -.867E+01   0.669E+01 0.841E+01 0.841E+01   0.195E+00 0.263E+00 0.263E+00   -.952E-04 0.342E-03 0.342E-03
   -.867E+01 -.689E+01 -.867E+01   0.841E+01 0.669E+01 0.841E+01   0.263E+00 0.195E+00 0.263E+00   0.342E-03 -.952E-04 0.342E-03
   0.689E+01 -.867E+01 0.867E+01   -.669E+01 0.841E+01 -.841E+01   -.195E+00 0.263E+00 -.263E+00   0.959E-04 0.341E-03 -.342E-03
   -.867E+01 0.689E+01 0.867E+01   0.841E+01 -.669E+01 -.841E+01   0.263E+00 -.195E+00 -.263E+00   0.341E-03 0.959E-04 -.342E-03
   -.724E+01 -.724E+01 -.723E+01   0.697E+01 0.697E+01 0.697E+01   0.267E+00 0.267E+00 0.267E+00   0.218E-03 0.218E-03 0.218E-03
   -.724E+01 0.724E+01 0.724E+01   0.697E+01 -.697E+01 -.697E+01   0.267E+00 -.267E+00 -.267E+00   0.217E-03 -.217E-03 -.217E-03
   0.724E+01 0.724E+01 -.723E+01   -.697E+01 -.697E+01 0.697E+01   -.267E+00 -.267E+00 0.267E+00   -.217E-03 -.217E-03 0.217E-03
   0.724E+01 -.724E+01 0.724E+01   -.697E+01 0.697E+01 -.697E+01   -.267E+00 0.267E+00 -.267E+00   -.217E-03 0.217E-03 -.217E-03
   -.116E+02 0.343E-03 -.350E-03   0.116E+02 0.795E-13 0.646E-13   0.404E-02 -.867E-18 -.867E-18   0.101E-03 0.722E-07 0.720E-07
   0.718E-03 0.116E+02 -.513E-03   -.899E-13 -.116E+02 -.849E-13   0.867E-18 -.404E-02 0.000E+00   0.756E-07 -.101E-03 0.766E-07
   0.116E+02 0.718E-03 -.513E-03   -.116E+02 -.985E-13 -.103E-12   -.404E-02 -.867E-18 0.520E-17   -.101E-03 0.756E-07 0.766E-07
   0.343E-03 -.116E+02 -.350E-03   0.767E-13 0.116E+02 0.625E-13   -.867E-18 0.404E-02 0.000E+00   0.722E-07 0.101E-03 0.720E-07
   0.709E-03 0.709E-03 -.116E+02   0.920E-13 0.873E-13 0.116E+02   -.260E-17 0.867E-18 0.404E-02   0.715E-07 0.715E-07 0.101E-03
   0.373E-03 0.373E-03 0.116E+02   -.825E-13 -.696E-13 -.116E+02   0.260E-17 -.867E-18 -.404E-02   0.761E-07 0.761E-07 -.101E-03
 -----------------------------------------------------------------------------------------------
   0.253E-02 0.253E-02 -.106E-02   -.333E-12 -.374E-13 0.320E-13   0.391E-15 0.278E-15 -.328E-15   0.680E-06 0.680E-06 0.679E-06
 
 
 POSITION                                       TOTAL-FORCE (eV/Angst)
 -----------------------------------------------------------------------------------
      0.94759      0.94759      0.94759         0.007206      0.007206      0.007206
     -3.44097      3.44097      3.44097         0.007206     -0.007206     -0.007206
      3.44097      3.44097     -3.44097        -0.007206     -0.007206      0.007206
      3.44097     -3.44097      3.44097        -0.007206      0.007206     -0.007206
      2.76765      2.76765      0.24188         0.000611      0.000611     -0.000539
     -1.62091      1.62091      4.14668         0.000611     -0.000611      0.000539
      1.62091      1.62091      4.63045        -0.000611     -0.000611     -0.000539
      1.62091     -1.62091      4.14668        -0.000611      0.000611      0.000539
      1.62091      4.63045      1.62091        -0.000611     -0.000539     -0.000611
      1.62091      4.14668     -1.62091        -0.000611      0.000539      0.000611
      4.14668      1.62091     -1.62091         0.000539     -0.000611      0.000611
      4.63045      1.62091      1.62091        -0.000539     -0.000611     -0.000611
      0.24188      2.76765      2.76765        -0.000539      0.000611      0.000611
      2.76765      0.24188      2.76765         0.000611     -0.000539      0.000611
      4.14668     -1.62091      1.62091         0.000539      0.000611     -0.000611
     -1.62091      4.14668      1.62091         0.000611      0.000539     -0.000611
      2.80213      2.80213      2.80213         0.002505      0.002505      0.002505
     -1.58644      1.58644      1.58644         0.002505     -0.002505     -0.002505
      1.58644      1.58644     -1.58644        -0.002505     -0.002505      0.002505
      1.58644     -1.58644      1.58644        -0.002505      0.002505     -0.002505
      3.08718      0.00000      0.00000        -0.010358      0.000000      0.000000
      0.00000      5.68996      0.00000         0.000000      0.010358      0.000000
      5.68996      0.00000      0.00000         0.010358      0.000000      0.000000
      0.00000      3.08718      0.00000         0.000000     -0.010358      0.000000
      0.00000      0.00000      3.08718         0.000000      0.000000     -0.010358
      0.00000      0.00000      5.68996         0.000000      0.000000      0.010358
 -----------------------------------------------------------------------------------
    total drift:                                0.002533      0.002533     -0.001056


--------------------------------------------------------------------------------------------------------



  FREE ENERGIE OF THE ION-ELECTRON SYSTEM (eV)
  ---------------------------------------------------
  free  energy   TOTEN  =      -100.929103 eV

  energy  without entropy=     -100.909300  energy(sigma->0) =     -100.922502
 
 d Force = 0.1366669E-03[ 0.105E-03, 0.169E-03]  d Energy = 0.1867063E-03-0.500E-04
 d Force = 0.2166205E+00[ 0.215E+00, 0.219E+00]  d Ewald  =-0.2468708E+01 0.269E+01


--------------------------------------------------------------------------------------------------------


    POTLOK:  cpu time    0.05: real time    0.05


--------------------------------------------------------------------------------------------------------


 Conjugate gradient step on ions:
 trial-energy change:   -0.000187  1 .order   -0.000178   -0.000215   -0.000140
  (g-gl).g = 0.124E-03      g.g   = 0.105E-03  gl.gl    = 0.629E-03
 g(Force)  = 0.812E-04   g(Stress)= 0.241E-04 ortho     = 0.267E-04
 gamma     =   0.19747
 trial     =   1.94409
 opt step  =   3.51198  (harmonic =   5.57304) maximal distance =0.00112775
 next E    =  -100.929165   (d E  =  -0.00025)


--------------------------------------------------------------------------------------------------------


     LOOP+:  cpu time   33.24: real time   33.35
    4ORBIT:  cpu time    0.00: real time    0.00

 total amount of memory used by VASP on root node    77721. kBytes
========================================================================

   base      :      30000. kBytes
   nonlr-proj:       5681. kBytes
   fftplans  :       2401. kBytes
   grid      :       5079. kBytes
   one-center:        404. kBytes
   wavefun   :      34156. kBytes
 
  
  
 General timing and accounting informations for this job:
 ========================================================
  
                  Total CPU time used (sec):      472.510
                            User time (sec):      472.170
                          System time (sec):        0.340
                         Elapsed time (sec):      474.081
  
                   Maximum memory used (kb):      153828.
                   Average memory used (kb):           0.
  
                          Minor page faults:        59844
                          Major page faults:            0
                 Voluntary context switches:         1476
