 vasp.5.2.12 11Nov11 complex                                                    
  
 executed on             LinuxIFC date 2014.05.30  10:53:06
 running on    4 nodes
 distr:  one band on    1 nodes,    4 groups


--------------------------------------------------------------------------------------------------------


 INCAR:
 POTCAR:    PAW_PBE Cu 22Jun2005                  
 POTCAR:    PAW_PBE Al 04Jan2001                  
 POTCAR:    PAW_PBE Cu 22Jun2005                  
   VRHFIN =Cu: d10 p1                                                           
   LEXCH  = PE                                                                  
   EATOM  =  1390.9808 eV,  102.2342 Ry                                         
                                                                                
   TITEL  = PAW_PBE Cu 22Jun2005                                                
   LULTRA =        F    use ultrasoft PP ?                                      
   IUNSCR =        1    unscreen: 0-lin 1-nonlin 2-no                           
   RPACOR =    2.000    partial core radius                                     
   POMASS =   63.546; ZVAL   =   11.000    mass and valenz                      
   RCORE  =    2.300    outmost cutoff radius                                   
   RWIGS  =    2.200; RWIGS  =    1.164    wigner-seitz radius (au A)           
   ENMAX  =  295.446; ENMIN  =  221.585 eV                                      
   ICORE  =        3    local potential                                         
   LCOR   =        T    correct aug charges                                     
   LPAW   =        T    paw PP                                                  
   EAUG   =  586.980                                                            
   DEXC   =    0.000                                                            
   RMAX   =    2.344    core radius for proj-oper                               
   RAUG   =    1.300    factor for augmentation sphere                          
   RDEP   =    2.302    radius for radial grids                                 
   RDEPT  =    1.771    core radius for aug-charge                              
                                                                                
   Atomic configuration                                                         
    9 entries                                                                   
     n  l   j            E        occ.                                          
     1  0  0.50     -8850.2468   2.0000                                         
     2  0  0.50     -1062.3498   2.0000                                         
     2  1  1.50      -916.8226   6.0000                                         
     3  0  0.50      -114.6929   2.0000                                         
     3  1  1.50       -72.1325   6.0000                                         
     3  2  2.50        -5.0394  10.0000                                         
     4  0  0.50        -4.6097   1.0000                                         
     4  1  0.50        -4.0817   0.0000                                         
     4  3  2.50        -1.3606   0.0000                                         
   Description                                                                  
     l       E           TYP  RCUT    TYP  RCUT                                 
     2     -5.0393973     23  2.200                                             
     2     10.8846608     23  2.200                                             
     0     -4.6097109     23  2.200                                             
     0      8.2520465     23  2.200                                             
     1     -2.7211652     23  2.200                                             
     1     21.7055443     23  2.200                                             
     3      2.7211652     23  2.300                                             
  local pseudopotential read in
  partial core-charges read in
  partial kinetic energy density read in
  atomic valenz-charges read in
  non local Contribution for L=           2  read in
    real space projection operators read in
  non local Contribution for L=           2  read in
    real space projection operators read in
  non local Contribution for L=           0  read in
    real space projection operators read in
  non local Contribution for L=           0  read in
    real space projection operators read in
  non local Contribution for L=           1  read in
    real space projection operators read in
  non local Contribution for L=           1  read in
    real space projection operators read in
    PAW grid and wavefunctions read in
 
   number of l-projection  operators is LMAX  =           6
   number of lm-projection operators is LMMAX =          18
 
 POTCAR:    PAW_PBE Al 04Jan2001                  
   VRHFIN =Al: s2p1                                                             
   LEXCH  = PE                                                                  
   EATOM  =    53.5387 eV,    3.9350 Ry                                         
                                                                                
   TITEL  = PAW_PBE Al 04Jan2001                                                
   LULTRA =        F    use ultrasoft PP ?                                      
   IUNSCR =        1    unscreen: 0-lin 1-nonlin 2-no                           
   RPACOR =    1.500    partial core radius                                     
   POMASS =   26.981; ZVAL   =    3.000    mass and valenz                      
   RCORE  =    1.900    outmost cutoff radius                                   
   RWIGS  =    2.650; RWIGS  =    1.402    wigner-seitz radius (au A)           
   ENMAX  =  240.300; ENMIN  =  180.225 eV                                      
   ICORE  =        2    local potential                                         
   LCOR   =        T    correct aug charges                                     
   LPAW   =        T    paw PP                                                  
   EAUG   =  291.052                                                            
   DEXC   =    0.000                                                            
   RMAX   =    1.939    core radius for proj-oper                               
   RAUG   =    1.300    factor for augmentation sphere                          
   RDEP   =    1.966    radius for radial grids                                 
   RDEPT  =    1.856    core radius for aug-charge                              
                                                                                
   Atomic configuration                                                         
    6 entries                                                                   
     n  l   j            E        occ.                                          
     1  0  0.50     -1511.1048   2.0000                                         
     2  0  0.50      -108.1629   2.0000                                         
     2  1  1.50       -69.6402   6.0000                                         
     3  0  0.50        -7.7528   2.0000                                         
     3  1  1.50        -2.7121   1.0000                                         
     3  2  2.50        -2.7212   0.0000                                         
   Description                                                                  
     l       E           TYP  RCUT    TYP  RCUT                                 
     0     -7.7528455     23  1.900                                             
     0     -3.3096929     23  1.900                                             
     1     -2.7120682     23  1.900                                             
     1     13.6058260     23  1.900                                             
     2     -2.7211652      7  1.900                                             
  local pseudopotential read in
  partial core-charges read in
  partial kinetic energy density read in
  atomic valenz-charges read in
  non local Contribution for L=           0  read in
    real space projection operators read in
  non local Contribution for L=           0  read in
    real space projection operators read in
  non local Contribution for L=           1  read in
    real space projection operators read in
  non local Contribution for L=           1  read in
    real space projection operators read in
    PAW grid and wavefunctions read in
 
   number of l-projection  operators is LMAX  =           4
   number of lm-projection operators is LMMAX =           8
 
 Optimization of the real space projectors (new method)

 maximal supplied QI-value         = 16.25
 optimisation between [QCUT,QGAM] = [  8.78, 17.55] = [ 21.57, 86.27] Ry 
 Optimized for a Real-space Cutoff    1.61 Angstroem

   l    n(q)    QCUT    max X(q) W(low)/X(q) W(high)/X(q)  e(spline) 
   2      7     8.776     4.610    0.19E-03    0.29E-03    0.29E-06
   2      7     8.776     8.522    0.28E-03    0.56E-03    0.43E-06
   0      8     8.776    51.609    0.51E-04    0.19E-03    0.66E-07
   0      8     8.776    27.747    0.45E-04    0.18E-03    0.64E-07
   1      8     8.776    20.408    0.41E-03    0.31E-03    0.23E-06
   1      8     8.776    13.425    0.36E-03    0.28E-03    0.21E-06
 Optimization of the real space projectors (new method)

 maximal supplied QI-value         = 19.84
 optimisation between [QCUT,QGAM] = [  8.73, 17.46] = [ 21.34, 85.38] Ry 
 Optimized for a Real-space Cutoff    1.43 Angstroem

   l    n(q)    QCUT    max X(q) W(low)/X(q) W(high)/X(q)  e(spline) 
   0      7     8.731   176.870    0.24E-03    0.42E-04    0.12E-06
   0      7     8.731   105.762    0.23E-03    0.40E-04    0.11E-06
   1      7     8.731    55.370    0.23E-03    0.67E-03    0.12E-06
   1      7     8.731    20.208    0.21E-03    0.61E-03    0.12E-06
  PAW_PBE Cu 22Jun2005                  :
 energy of atom  1       EATOM=-1390.9808
 kinetic energy error for atom=    0.0452 (will be added to EATOM!!)
  PAW_PBE Al 04Jan2001                  :
 energy of atom  2       EATOM=  -53.5387
 kinetic energy error for atom=    0.0012 (will be added to EATOM!!)
 
 
 POSCAR: XYZ: Cu10Al10                           
  positions in direct lattice
  velocities in cartesian coordinates
 exchange correlation table for  LEXCH =        8
   RHO(1)=    0.500       N(1)  =     2000
   RHO(2)=  100.500       N(2)  =     4000
 


--------------------------------------------------------------------------------------------------------


 ion  position               nearest neighbor table
   1  0.000  0.000  0.000-  19 2.51  20 2.51  19 2.51  20 2.51   7 2.55   8 2.55   3 2.57   4 2.57
                            13 2.60  14 2.60
   2  0.500  0.500  0.000-  17 2.51  18 2.51  17 2.51  18 2.51   9 2.55  10 2.55   5 2.57   6 2.57
                            15 2.60  16 2.60
   3  0.259  0.000  0.759-  12 2.39  13 2.44  20 2.54  20 2.54   1 2.57  10 2.62  10 2.62   7 2.64
                            16 2.66  16 2.66  17 2.78
   4  0.741  0.000  0.241-  12 2.39  14 2.44  19 2.54  19 2.54   1 2.57   9 2.62   9 2.62   8 2.64
                            15 2.66  15 2.66  18 2.78
   5  0.759  0.500  0.759-  11 2.39  15 2.44  18 2.54  18 2.54   2 2.57   8 2.62   8 2.62   9 2.64
                            14 2.66  14 2.66  19 2.78
   6  0.241  0.500  0.241-  11 2.39  16 2.44  17 2.54  17 2.54   2 2.57   7 2.62   7 2.62  10 2.64
                            13 2.66  13 2.66  20 2.78
   7  0.109  0.000  0.227-  13 2.50   1 2.55  20 2.56  20 2.56  11 2.58  11 2.58   6 2.62   6 2.62
                            14 2.63   3 2.64  17 2.68
   8  0.891  0.000  0.773-  14 2.50   1 2.55  19 2.56  19 2.56  11 2.58  11 2.58   5 2.62   5 2.62
                            13 2.63   4 2.64  18 2.68
   9  0.609  0.500  0.227-  15 2.50   2 2.55  18 2.56  18 2.56  12 2.58  12 2.58   4 2.62   4 2.62
                            16 2.63   5 2.64  19 2.68
  10  0.391  0.500  0.773-  16 2.50   2 2.55  17 2.56  17 2.56  12 2.58  12 2.58   3 2.62   3 2.62
                            15 2.63   6 2.64  20 2.68
  11  0.000  0.500  0.500-   5 2.39   6 2.39   7 2.58   8 2.58   7 2.58   8 2.58  13 2.89  14 2.89
                            13 2.89  14 2.89  19 2.92  20 2.92
  12  0.500  0.000  0.500-   3 2.39   4 2.39   9 2.58  10 2.58   9 2.58  10 2.58  15 2.89  16 2.89
                            15 2.89  16 2.89  17 2.92  18 2.92
  13  0.155  0.000  0.540-   3 2.44   7 2.50   1 2.60   8 2.63   6 2.66   6 2.66  16 2.88  16 2.88
                            11 2.89  11 2.89  17 3.06
  14  0.845  0.000  0.460-   4 2.44   8 2.50   1 2.60   7 2.63   5 2.66   5 2.66  15 2.88  15 2.88
                            11 2.89  11 2.89  18 3.06
  15  0.655  0.500  0.540-   5 2.44   9 2.50   2 2.60  10 2.63   4 2.66   4 2.66  14 2.88  14 2.88
                            12 2.89  12 2.89  19 3.06
  16  0.345  0.500  0.460-   6 2.44  10 2.50   2 2.60   9 2.63   3 2.66   3 2.66  13 2.88  13 2.88
                            12 2.89  12 2.89  20 3.06
  17  0.377  0.000  0.009-   2 2.51   2 2.51   6 2.54   6 2.54  10 2.56  10 2.56   7 2.68   3 2.78
                            18 2.89  12 2.92  13 3.06
  18  0.623  0.000  0.991-   2 2.51   2 2.51   5 2.54   5 2.54   9 2.56   9 2.56   8 2.68   4 2.78
                            17 2.89  12 2.92  14 3.06
  19  0.877  0.500  0.009-   1 2.51   1 2.51   4 2.54   4 2.54   8 2.56   8 2.56   9 2.68   5 2.78
                            20 2.89  11 2.92  15 3.06
  20  0.123  0.500  0.991-   1 2.51   1 2.51   3 2.54   3 2.54   7 2.56   7 2.56  10 2.68   6 2.78
                            19 2.89  11 2.92  16 3.06
 
  LATTYP: Found a simple monoclinic cell.
 ALAT       =    12.0416492737
 B/A-ratio  =     0.3401905626
 C/A-ratio  =     1.4036764590
 COS(beta)  =    -0.9425263711
  
  Lattice vectors:
  
 A1 = ( -12.0414556624,   0.0000000000,   0.0682844139)
 A2 = (   0.0000000000,  -4.0964554408,   0.0000000000)
 A3 = (  15.9628971477,   0.0000000000,   5.5572576180)
 Subroutine PRICEL returns following result:
 
  LATTYP: Found a base centered monoclinic cell.
 ALAT       =    12.0416492737
 B/A-ratio  =     0.3401905626
 C/A-ratio  =     0.8235892697
 COS(beta)  =    -0.7782106575
  
  Lattice vectors:
  
 A1 = (  -6.0207278312,  -2.0482277204,   0.0341422070)
 A2 = (  -6.0207278312,   2.0482277204,   0.0341422070)
 A3 = (   8.1200141771,   0.0000000000,  -5.6938264458)
 
   2 primitive cells build up your supercell.
 

Analysis of symmetry for initial positions (statically):

 Routine SETGRP: Setting up the symmetry group for a 
 simple monoclinic supercell.


 Subroutine GETGRP returns: Found  4 space group operations
 (whereof  4 operations were pure point group operations)
 out of a pool of  4 trial point group operations.


The static configuration has the point symmetry C_2h.

Analysis of symmetry for dynamics (positions and initial velocities):

 Subroutine DYNSYM returns: Found  4 space group operations
 (whereof  4 operations were pure point group operations)
 out of a pool of  4 trial space group operations
 (whereof  4 operations were pure point group operations)
 and found also     2 'primitive' translations


The dynamic configuration has the point symmetry C_2h.
 
 
 KPOINTS: Automatic mesh                          

Automatic generation of k-mesh.
 
 Subroutine IBZKPT returns following result:
 ===========================================
 
 Found     60 irreducible k-points:
 
 Following reciprocal coordinates:
            Coordinates               Weight
  0.125000  0.000000  0.083333      2.000000
  0.375000  0.000000  0.083333      2.000000
 -0.375000  0.000000  0.083333      2.000000
 -0.125000  0.000000  0.083333      2.000000
  0.125000  0.111111  0.083333      4.000000
  0.375000  0.111111  0.083333      4.000000
 -0.375000  0.111111  0.083333      4.000000
 -0.125000  0.111111  0.083333      4.000000
  0.125000  0.222222  0.083333      4.000000
  0.375000  0.222222  0.083333      4.000000
 -0.375000  0.222222  0.083333      4.000000
 -0.125000  0.222222  0.083333      4.000000
  0.125000  0.333333  0.083333      4.000000
  0.375000  0.333333  0.083333      4.000000
 -0.375000  0.333333  0.083333      4.000000
 -0.125000  0.333333  0.083333      4.000000
  0.125000  0.444444  0.083333      4.000000
  0.375000  0.444444  0.083333      4.000000
 -0.375000  0.444444  0.083333      4.000000
 -0.125000  0.444444  0.083333      4.000000
  0.125000  0.000000  0.250000      2.000000
  0.375000  0.000000  0.250000      2.000000
 -0.375000  0.000000  0.250000      2.000000
 -0.125000  0.000000  0.250000      2.000000
  0.125000  0.111111  0.250000      4.000000
  0.375000  0.111111  0.250000      4.000000
 -0.375000  0.111111  0.250000      4.000000
 -0.125000  0.111111  0.250000      4.000000
  0.125000  0.222222  0.250000      4.000000
  0.375000  0.222222  0.250000      4.000000
 -0.375000  0.222222  0.250000      4.000000
 -0.125000  0.222222  0.250000      4.000000
  0.125000  0.333333  0.250000      4.000000
  0.375000  0.333333  0.250000      4.000000
 -0.375000  0.333333  0.250000      4.000000
 -0.125000  0.333333  0.250000      4.000000
  0.125000  0.444444  0.250000      4.000000
  0.375000  0.444444  0.250000      4.000000
 -0.375000  0.444444  0.250000      4.000000
 -0.125000  0.444444  0.250000      4.000000
  0.125000  0.000000  0.416667      2.000000
  0.375000  0.000000  0.416667      2.000000
 -0.375000  0.000000  0.416667      2.000000
 -0.125000  0.000000  0.416667      2.000000
  0.125000  0.111111  0.416667      4.000000
  0.375000  0.111111  0.416667      4.000000
 -0.375000  0.111111  0.416667      4.000000
 -0.125000  0.111111  0.416667      4.000000
  0.125000  0.222222  0.416667      4.000000
  0.375000  0.222222  0.416667      4.000000
 -0.375000  0.222222  0.416667      4.000000
 -0.125000  0.222222  0.416667      4.000000
  0.125000  0.333333  0.416667      4.000000
  0.375000  0.333333  0.416667      4.000000
 -0.375000  0.333333  0.416667      4.000000
 -0.125000  0.333333  0.416667      4.000000
  0.125000  0.444444  0.416667      4.000000
  0.375000  0.444444  0.416667      4.000000
 -0.375000  0.444444  0.416667      4.000000
 -0.125000  0.444444  0.416667      4.000000
 
 Following cartesian coordinates:
            Coordinates               Weight
  0.010424  0.000000  0.007547      2.000000
  0.031103  0.000000 -0.006868      2.000000
 -0.030936  0.000000  0.036378      2.000000
 -0.010256  0.000000  0.021963      2.000000
  0.010424  0.027124  0.007547      4.000000
  0.031103  0.027124 -0.006868      4.000000
 -0.030936  0.027124  0.036378      4.000000
 -0.010256  0.027124  0.021963      4.000000
  0.010424  0.054247  0.007547      4.000000
  0.031103  0.054247 -0.006868      4.000000
 -0.030936  0.054247  0.036378      4.000000
 -0.010256  0.054247  0.021963      4.000000
  0.010424  0.081371  0.007547      4.000000
  0.031103  0.081371 -0.006868      4.000000
 -0.030936  0.081371  0.036378      4.000000
 -0.010256  0.081371  0.021963      4.000000
  0.010424  0.108495  0.007547      4.000000
  0.031103  0.108495 -0.006868      4.000000
 -0.030936  0.108495  0.036378      4.000000
 -0.010256  0.108495  0.021963      4.000000
  0.010591  0.000000  0.037057      2.000000
  0.031271  0.000000  0.022642      2.000000
 -0.030769  0.000000  0.065888      2.000000
 -0.010089  0.000000  0.051473      2.000000
  0.010591  0.027124  0.037057      4.000000
  0.031271  0.027124  0.022642      4.000000
 -0.030769  0.027124  0.065888      4.000000
 -0.010089  0.027124  0.051473      4.000000
  0.010591  0.054247  0.037057      4.000000
  0.031271  0.054247  0.022642      4.000000
 -0.030769  0.054247  0.065888      4.000000
 -0.010089  0.054247  0.051473      4.000000
  0.010591  0.081371  0.037057      4.000000
  0.031271  0.081371  0.022642      4.000000
 -0.030769  0.081371  0.065888      4.000000
 -0.010089  0.081371  0.051473      4.000000
  0.010591  0.108495  0.037057      4.000000
  0.031271  0.108495  0.022642      4.000000
 -0.030769  0.108495  0.065888      4.000000
 -0.010089  0.108495  0.051473      4.000000
  0.010758  0.000000  0.066568      2.000000
  0.031438  0.000000  0.052152      2.000000
 -0.030601  0.000000  0.095399      2.000000
 -0.009922  0.000000  0.080983      2.000000
  0.010758  0.027124  0.066568      4.000000
  0.031438  0.027124  0.052152      4.000000
 -0.030601  0.027124  0.095399      4.000000
 -0.009922  0.027124  0.080983      4.000000
  0.010758  0.054247  0.066568      4.000000
  0.031438  0.054247  0.052152      4.000000
 -0.030601  0.054247  0.095399      4.000000
 -0.009922  0.054247  0.080983      4.000000
  0.010758  0.081371  0.066568      4.000000
  0.031438  0.081371  0.052152      4.000000
 -0.030601  0.081371  0.095399      4.000000
 -0.009922  0.081371  0.080983      4.000000
  0.010758  0.108495  0.066568      4.000000
  0.031438  0.108495  0.052152      4.000000
 -0.030601  0.108495  0.095399      4.000000
 -0.009922  0.108495  0.080983      4.000000
 


--------------------------------------------------------------------------------------------------------




 Dimension of arrays:
   k-points           NKPTS =     60   k-points in BZ     NKDIM =     60   number of bands    NBANDS=     84
   number of dos      NEDOS =    301   number of ions     NIONS =     20
   non local maximal  LDIM  =      6   non local SUM 2l+1 LMDIM =     18
   total plane-waves  NPLWV =  29160
   max r-space proj   IRMAX =   1867   max aug-charges    IRDMAX=   4273
   dimension x,y,z NGX =    54 NGY =   18 NGZ =   30
   dimension x,y,z NGXF=   108 NGYF=   36 NGZF=   60
   support grid    NGXF=   108 NGYF=   36 NGZF=   60
   ions per type =              10  10
 NGX,Y,Z   is equivalent  to a cutoff of   7.46,  7.30,  7.27 a.u.
 NGXF,Y,Z  is equivalent  to a cutoff of  14.91, 14.61, 14.55 a.u.


 I would recommend the setting:
   dimension x,y,z NGX =    51 NGY =   17 NGZ =   29
 SYSTEM =  Al10Cu10                                
 POSCAR =  XYZ: Cu10Al10                           

 Startparameter for this run:
   NWRITE =      2    write-flag & timer
   PREC   = normal    normal or accurate (medium, high low for compatibility)
   ISTART =      0    job   : 0-new  1-cont  2-samecut
   ICHARG =      2    charge: 1-file 2-atom 10-const
   ISPIN  =      1    spin polarized calculation?
   LNONCOLLINEAR =      F non collinear calculations
   LSORBIT =      F    spin-orbit coupling
   INIWAV =      1    electr: 0-lowe 1-rand  2-diag
   LASPH  =      F    aspherical Exc in radial PAW
   METAGGA=      F    non-selfconsistent MetaGGA calc.

 Electronic Relaxation 1
   ENCUT  =  295.4 eV  21.71 Ry    4.66 a.u.  16.88  5.74  9.61*2*pi/ulx,y,z
   ENINI  =  295.4     initial cutoff
   ENAUG  =  587.0 eV  augmentation charge cutoff
   NELM   =     40;   NELMIN=  2; NELMDL=  0     # of ELM steps 
   EDIFF  = 0.1E-05   stopping-criterion for ELM
   LREAL  =      T    real-space projection
   NLSPLINE    = F    spline interpolate recip. space projectors
   LCOMPAT=      F    compatible to vasp.4.4
   GGA_COMPAT  = T    GGA compatible to vasp.4.4-vasp.4.6
   LMAXPAW     = -100 max onsite density
   LMAXMIX     =    2 max onsite mixed and CHGCAR
   VOSKOWN=      0    Vosko Wilk Nusair interpolation
   ROPT   =   -0.00050  -0.00050
 Ionic relaxation
   EDIFFG = 0.1E-04   stopping-criterion for IOM
   NSW    =     10    number of steps for IOM
   NBLOCK =      1;   KBLOCK =     10    inner block; outer block 
   IBRION =      2    ionic relax: 0-MD 1-quasi-New 2-CG
   NFREE  =      1    steps in history (QN), initial steepest desc. (CG)
   ISIF   =      3    stress and relaxation
   IWAVPR =     11    prediction:  0-non 1-charg 2-wave 3-comb
   ISYM   =      2    0-nonsym 1-usesym 2-fastsym
   LCORR  =      T    Harris-Foulkes like correction to forces

   POTIM  = 0.2500    time-step for ionic-motion
   TEIN   =    0.0    initial temperature
   TEBEG  =    0.0;   TEEND  =   0.0 temperature during run
   SMASS  =  -3.00    Nose mass-parameter (am)
   estimated Nose-frequenzy (Omega)   =  0.10E-29 period in steps =****** mass=  -0.331E-26a.u.
   SCALEE = 1.0000    scale energy and forces
   NPACO  =    256;   APACO  = 16.0  distance and # of slots for P.C.
   PSTRESS=    0.0 pullay stress

  Mass of Ions in am
   POMASS =  63.55 26.98
  Ionic Valenz
   ZVAL   =  11.00  3.00
  Atomic Wigner-Seitz radii
   RWIGS  =  -1.00 -1.00
  virtual crystal weights 
   VCA    =   1.00  1.00
   NELECT =     140.0000    total number of electrons
   NUPDOWN=      -1.0000    fix difference up-down

 DOS related values:
   EMIN   =  10.00;   EMAX   =-10.00  energy-range for DOS
   EFERMI =   0.00
   ISMEAR =     1;   SIGMA  =   0.20  broadening in eV -4-tet -1-fermi 0-gaus

 Electronic relaxation 2 (details)
   IALGO  =     68    algorithm
   LDIAG  =      T    sub-space diagonalisation (order eigenvalues)
   LSUBROT=      T    optimize rotation matrix (better conditioning)
   TURBO    =      0    0=normal 1=particle mesh
   IRESTART =      0    0=no restart 2=restart with 2 vectors
   NREBOOT  =      0    no. of reboots
   NMIN     =      0    reboot dimension
   EREF     =   0.00    reference energy to select bands
   IMIX   =      4    mixing-type and parameters
     AMIX     =   0.40;   BMIX     =  1.00
     AMIX_MAG =   1.60;   BMIX_MAG =  1.00
     AMIN     =   0.10
     WC   =   100.;   INIMIX=   1;  MIXPRE=   1

 Intra band minimization:
   WEIMIN = 0.0010     energy-eigenvalue tresh-hold
   EBREAK =  0.30E-08  absolut break condition
   DEPER  =   0.30     relativ break condition  

   TIME   =   0.40     timestep for ELM

  volume/ion in A,a.u.               =      13.93        94.00
  Fermi-wavevector in a.u.,A,eV,Ry     =   1.301555  2.459582 23.048887  1.694045
  Thomas-Fermi vector in A             =   2.432681
 
 Write flags
   LWAVE  =      F    write WAVECAR
   LCHARG =      F    write CHGCAR
   LVTOT  =      F    write LOCPOT, total local potential
   LVHAR  =      F    write LOCPOT, Hartree potential only
   LELF   =      F    write electronic localiz. function (ELF)
   LORBIT =      0    0 simple, 1 ext, 2 COOP (PROOUT)


 Dipole corrections
   LMONO  =      F    monopole corrections only (constant potential shift)
   LDIPOL =      F    correct potential (dipole corrections)
   IDIPOL =      0    1-x, 2-y, 3-z, 4-all directions 
   EPSILON=  1.0000000 bulk dielectric constant

 Exchange correlation treatment:
   GGA     =    --    GGA type
   LEXCH   =     8    internal setting for exchange type
   VOSKOWN=      0    Vosko Wilk Nusair interpolation
   LHFCALC =     F    Hartree Fock is set to
   LHFONE  =     F    Hartree Fock one center treatment
   AEXX    =    0.0000 exact exchange contribution

 Linear response parameters
   LEPSILON=     F    determine dielectric tensor
   LRPA    =     F    only Hartree local field effects (RPA)
   LNABLA  =     F    use nabla operator in PAW spheres
   LVEL    =     F    velocity operator in full k-point grid
   LINTERFAST=   F  fast interpolation
   KINTER  =     0    interpolate to denser k-point grid
   CSHIFT  =0.1000    complex shift for real part using Kramers Kronig
   OMEGAMAX=  -1.0    maximum frequency
   RTIME   =    0.100 relaxation time in fs

 Orbital magnetization related:
   ORBITALMAG=     F  switch on orbital magnetization
   LCHIMAG   =     F  perturbation theory with respect to B field
   DQ        =  0.001000  dq finite difference perturbation B field



--------------------------------------------------------------------------------------------------------


 conjugate gradient relaxation of ions
 charge density and potential will be updated during run
 non-spin polarized calculation
 RMM-DIIS sequential band-by-band and
  variant of blocked Davidson during initial phase
 perform sub-space diagonalisation
    before iterative eigenvector-optimisation
 modified Broyden-mixing scheme, WC =      100.0
 initial mixing is a Kerker type mixing with AMIX =  0.4000 and BMIX =      1.0000
 Hartree-type preconditioning will be used
 using additional bands           14
 real space projection scheme for non local part
 use partial core corrections
 calculate Harris-corrections to forces 
   (improved forces if not selfconsistent)
 use gradient corrections 
 use of overlap-Matrix (Vanderbilt PP)
 Methfessel and Paxton  Order N= 1 SIGMA  =   0.20


--------------------------------------------------------------------------------------------------------


  energy-cutoff  :      295.45
  volume of cell :      278.59
      direct lattice vectors                 reciprocal lattice vectors
    12.041455662  0.000000000 -0.068284414     0.082719450  0.000000000 -0.057661907
     0.000000000  4.096455441  0.000000000     0.000000000  0.244113482  0.000000000
     3.921441485  0.000000000  5.625542032     0.001004072  0.000000000  0.177060732

  length of vectors
    12.041649274  4.096455441  6.857435853     0.100833541  0.244113482  0.177063579


 
 k-points in units of 2pi/SCALE and weight: Automatic mesh                          
   0.01042360  0.00000000  0.00754732       0.009
   0.03110347  0.00000000 -0.00686815       0.009
  -0.03093612  0.00000000  0.03637828       0.009
  -0.01025626  0.00000000  0.02196280       0.009
   0.01042360  0.02712372  0.00754732       0.019
   0.03110347  0.02712372 -0.00686815       0.019
  -0.03093612  0.02712372  0.03637828       0.019
  -0.01025626  0.02712372  0.02196280       0.019
   0.01042360  0.05424744  0.00754732       0.019
   0.03110347  0.05424744 -0.00686815       0.019
  -0.03093612  0.05424744  0.03637828       0.019
  -0.01025626  0.05424744  0.02196280       0.019
   0.01042360  0.08137116  0.00754732       0.019
   0.03110347  0.08137116 -0.00686815       0.019
  -0.03093612  0.08137116  0.03637828       0.019
  -0.01025626  0.08137116  0.02196280       0.019
   0.01042360  0.10849488  0.00754732       0.019
   0.03110347  0.10849488 -0.00686815       0.019
  -0.03093612  0.10849488  0.03637828       0.019
  -0.01025626  0.10849488  0.02196280       0.019
   0.01059095  0.00000000  0.03705744       0.009
   0.03127081  0.00000000  0.02264197       0.009
  -0.03076878  0.00000000  0.06588840       0.009
  -0.01008891  0.00000000  0.05147292       0.009
   0.01059095  0.02712372  0.03705744       0.019
   0.03127081  0.02712372  0.02264197       0.019
  -0.03076878  0.02712372  0.06588840       0.019
  -0.01008891  0.02712372  0.05147292       0.019
   0.01059095  0.05424744  0.03705744       0.019
   0.03127081  0.05424744  0.02264197       0.019
  -0.03076878  0.05424744  0.06588840       0.019
  -0.01008891  0.05424744  0.05147292       0.019
   0.01059095  0.08137116  0.03705744       0.019
   0.03127081  0.08137116  0.02264197       0.019
  -0.03076878  0.08137116  0.06588840       0.019
  -0.01008891  0.08137116  0.05147292       0.019
   0.01059095  0.10849488  0.03705744       0.019
   0.03127081  0.10849488  0.02264197       0.019
  -0.03076878  0.10849488  0.06588840       0.019
  -0.01008891  0.10849488  0.05147292       0.019
   0.01075829  0.00000000  0.06656757       0.009
   0.03143816  0.00000000  0.05215209       0.009
  -0.03060143  0.00000000  0.09539852       0.009
  -0.00992157  0.00000000  0.08098304       0.009
   0.01075829  0.02712372  0.06656757       0.019
   0.03143816  0.02712372  0.05215209       0.019
  -0.03060143  0.02712372  0.09539852       0.019
  -0.00992157  0.02712372  0.08098304       0.019
   0.01075829  0.05424744  0.06656757       0.019
   0.03143816  0.05424744  0.05215209       0.019
  -0.03060143  0.05424744  0.09539852       0.019
  -0.00992157  0.05424744  0.08098304       0.019
   0.01075829  0.08137116  0.06656757       0.019
   0.03143816  0.08137116  0.05215209       0.019
  -0.03060143  0.08137116  0.09539852       0.019
  -0.00992157  0.08137116  0.08098304       0.019
   0.01075829  0.10849488  0.06656757       0.019
   0.03143816  0.10849488  0.05215209       0.019
  -0.03060143  0.10849488  0.09539852       0.019
  -0.00992157  0.10849488  0.08098304       0.019
 
 k-points in reciprocal lattice and weights: Automatic mesh                          
   0.12500000  0.00000000  0.08333333       0.009
   0.37500000  0.00000000  0.08333333       0.009
  -0.37500000  0.00000000  0.08333333       0.009
  -0.12500000  0.00000000  0.08333333       0.009
   0.12500000  0.11111111  0.08333333       0.019
   0.37500000  0.11111111  0.08333333       0.019
  -0.37500000  0.11111111  0.08333333       0.019
  -0.12500000  0.11111111  0.08333333       0.019
   0.12500000  0.22222222  0.08333333       0.019
   0.37500000  0.22222222  0.08333333       0.019
  -0.37500000  0.22222222  0.08333333       0.019
  -0.12500000  0.22222222  0.08333333       0.019
   0.12500000  0.33333333  0.08333333       0.019
   0.37500000  0.33333333  0.08333333       0.019
  -0.37500000  0.33333333  0.08333333       0.019
  -0.12500000  0.33333333  0.08333333       0.019
   0.12500000  0.44444444  0.08333333       0.019
   0.37500000  0.44444444  0.08333333       0.019
  -0.37500000  0.44444444  0.08333333       0.019
  -0.12500000  0.44444444  0.08333333       0.019
   0.12500000  0.00000000  0.25000000       0.009
   0.37500000  0.00000000  0.25000000       0.009
  -0.37500000  0.00000000  0.25000000       0.009
  -0.12500000  0.00000000  0.25000000       0.009
   0.12500000  0.11111111  0.25000000       0.019
   0.37500000  0.11111111  0.25000000       0.019
  -0.37500000  0.11111111  0.25000000       0.019
  -0.12500000  0.11111111  0.25000000       0.019
   0.12500000  0.22222222  0.25000000       0.019
   0.37500000  0.22222222  0.25000000       0.019
  -0.37500000  0.22222222  0.25000000       0.019
  -0.12500000  0.22222222  0.25000000       0.019
   0.12500000  0.33333333  0.25000000       0.019
   0.37500000  0.33333333  0.25000000       0.019
  -0.37500000  0.33333333  0.25000000       0.019
  -0.12500000  0.33333333  0.25000000       0.019
   0.12500000  0.44444444  0.25000000       0.019
   0.37500000  0.44444444  0.25000000       0.019
  -0.37500000  0.44444444  0.25000000       0.019
  -0.12500000  0.44444444  0.25000000       0.019
   0.12500000  0.00000000  0.41666667       0.009
   0.37500000  0.00000000  0.41666667       0.009
  -0.37500000  0.00000000  0.41666667       0.009
  -0.12500000  0.00000000  0.41666667       0.009
   0.12500000  0.11111111  0.41666667       0.019
   0.37500000  0.11111111  0.41666667       0.019
  -0.37500000  0.11111111  0.41666667       0.019
  -0.12500000  0.11111111  0.41666667       0.019
   0.12500000  0.22222222  0.41666667       0.019
   0.37500000  0.22222222  0.41666667       0.019
  -0.37500000  0.22222222  0.41666667       0.019
  -0.12500000  0.22222222  0.41666667       0.019
   0.12500000  0.33333333  0.41666667       0.019
   0.37500000  0.33333333  0.41666667       0.019
  -0.37500000  0.33333333  0.41666667       0.019
  -0.12500000  0.33333333  0.41666667       0.019
   0.12500000  0.44444444  0.41666667       0.019
   0.37500000  0.44444444  0.41666667       0.019
  -0.37500000  0.44444444  0.41666667       0.019
  -0.12500000  0.44444444  0.41666667       0.019
 
 position of ions in fractional coordinates (direct lattice) 
   0.00000000  0.00000000  0.00000000
   0.50000000  0.50000000  0.00000000
   0.25898256  0.00000000  0.75914230
   0.74101744  0.00000000  0.24085770
   0.75898256  0.50000000  0.75914230
   0.24101744  0.50000000  0.24085770
   0.10943818  0.00000000  0.22709300
   0.89056182  0.00000000  0.77290700
   0.60943818  0.50000000  0.22709300
   0.39056182  0.50000000  0.77290700
   0.00000000  0.50000000  0.50000000
   0.50000000  0.00000000  0.50000000
   0.15533660  0.00000000  0.53958318
   0.84466340  0.00000000  0.46041682
   0.65533660  0.50000000  0.53958318
   0.34466340  0.50000000  0.46041682
   0.37719802  0.00000000  0.00916913
   0.62280198  0.00000000  0.99083087
   0.87719802  0.50000000  0.00916913
   0.12280198  0.50000000  0.99083087
 
 position of ions in cartesian coordinates  (Angst):
   0.00000000  0.00000000  0.00000000
   6.02072783  2.04822772 -0.03414221
   6.09545915  0.00000000  4.25290243
   9.86743800  0.00000000  1.30435519
  12.11618698  2.04822772  4.21876022
   3.84671017  2.04822772  1.33849740
   2.20832690  0.00000000  1.27004827
  13.75457024  0.00000000  4.28720934
   8.22905473  2.04822772  1.23590607
   7.73384241  2.04822772  4.32135155
   1.96072074  2.04822772  2.81277102
   7.98144857  0.00000000  2.77862881
   3.98642260  0.00000000  3.02484080
  11.97647455  0.00000000  2.53241682
  10.00715043  2.04822772  2.99069859
   5.95574672  2.04822772  2.56655903
   4.57796938  0.00000000  0.02582458
  11.38492777  0.00000000  5.53143304
  10.59869721  2.04822772 -0.00831763
   5.36419993  2.04822772  5.56557525
 


--------------------------------------------------------------------------------------------------------


 k-point  1 :  0.12500.00000.0833  plane waves:    3199
 k-point  2 :  0.37500.00000.0833  plane waves:    3216
 k-point  3 :  -.37500.00000.0833  plane waves:    3222
 k-point  4 :  -.12500.00000.0833  plane waves:    3207
 k-point  5 :  0.12500.11110.0833  plane waves:    3206
 k-point  6 :  0.37500.11110.0833  plane waves:    3208
 k-point  7 :  -.37500.11110.0833  plane waves:    3227
 k-point  8 :  -.12500.11110.0833  plane waves:    3207
 k-point  9 :  0.12500.22220.0833  plane waves:    3211
 k-point 10 :  0.37500.22220.0833  plane waves:    3214
 k-point 11 :  -.37500.22220.0833  plane waves:    3218
 k-point 12 :  -.12500.22220.0833  plane waves:    3215
 k-point 13 :  0.12500.33330.0833  plane waves:    3218
 k-point 14 :  0.37500.33330.0833  plane waves:    3221
 k-point 15 :  -.37500.33330.0833  plane waves:    3223
 k-point 16 :  -.12500.33330.0833  plane waves:    3225
 k-point 17 :  0.12500.44440.0833  plane waves:    3232
 k-point 18 :  0.37500.44440.0833  plane waves:    3220
 k-point 19 :  -.37500.44440.0833  plane waves:    3212
 k-point 20 :  -.12500.44440.0833  plane waves:    3215
 k-point 21 :  0.12500.00000.2500  plane waves:    3204
 k-point 22 :  0.37500.00000.2500  plane waves:    3200
 k-point 23 :  -.37500.00000.2500  plane waves:    3223
 k-point 24 :  -.12500.00000.2500  plane waves:    3228
 k-point 25 :  0.12500.11110.2500  plane waves:    3213
 k-point 26 :  0.37500.11110.2500  plane waves:    3210
 k-point 27 :  -.37500.11110.2500  plane waves:    3219
 k-point 28 :  -.12500.11110.2500  plane waves:    3221
 k-point 29 :  0.12500.22220.2500  plane waves:    3217
 k-point 30 :  0.37500.22220.2500  plane waves:    3209
 k-point 31 :  -.37500.22220.2500  plane waves:    3213
 k-point 32 :  -.12500.22220.2500  plane waves:    3213
 k-point 33 :  0.12500.33330.2500  plane waves:    3214
 k-point 34 :  0.37500.33330.2500  plane waves:    3215
 k-point 35 :  -.37500.33330.2500  plane waves:    3213
 k-point 36 :  -.12500.33330.2500  plane waves:    3215
 k-point 37 :  0.12500.44440.2500  plane waves:    3209
 k-point 38 :  0.37500.44440.2500  plane waves:    3210
 k-point 39 :  -.37500.44440.2500  plane waves:    3213
 k-point 40 :  -.12500.44440.2500  plane waves:    3210
 k-point 41 :  0.12500.00000.4167  plane waves:    3223
 k-point 42 :  0.37500.00000.4167  plane waves:    3208
 k-point 43 :  -.37500.00000.4167  plane waves:    3222
 k-point 44 :  -.12500.00000.4167  plane waves:    3228
 k-point 45 :  0.12500.11110.4167  plane waves:    3211
 k-point 46 :  0.37500.11110.4167  plane waves:    3213
 k-point 47 :  -.37500.11110.4167  plane waves:    3215
 k-point 48 :  -.12500.11110.4167  plane waves:    3211
 k-point 49 :  0.12500.22220.4167  plane waves:    3202
 k-point 50 :  0.37500.22220.4167  plane waves:    3206
 k-point 51 :  -.37500.22220.4167  plane waves:    3202
 k-point 52 :  -.12500.22220.4167  plane waves:    3196
 k-point 53 :  0.12500.33330.4167  plane waves:    3201
 k-point 54 :  0.37500.33330.4167  plane waves:    3208
 k-point 55 :  -.37500.33330.4167  plane waves:    3201
 k-point 56 :  -.12500.33330.4167  plane waves:    3199
 k-point 57 :  0.12500.44440.4167  plane waves:    3215
 k-point 58 :  0.37500.44440.4167  plane waves:    3200
 k-point 59 :  -.37500.44440.4167  plane waves:    3215
 k-point 60 :  -.12500.44440.4167  plane waves:    3214

 maximum and minimum number of plane-waves per node :      3232     3196

 maximum number of plane-waves:      3232
 maximum index in each direction: 
   IXMAX=   17   IYMAX=    5   IZMAX=    9
   IXMIN=  -17   IYMIN=   -6   IZMIN=  -10

 WARNING: aliasing errors must be expected set NGX to  70 to avoid them
 WARNING: aliasing errors must be expected set NGY to  24 to avoid them
 WARNING: aliasing errors must be expected set NGZ to  40 to avoid them
 aliasing errors are usually negligible using standard VASP settings
 and one can safely disregard these warnings

 serial   3D FFT for wavefunctions
 parallel 3D FFT for charge:
    minimum data exchange during FFTs selected (reduces bandwidth)


 total amount of memory used by VASP on root node   111661. kBytes
========================================================================

   base      :      30000. kBytes
   nonlr-proj:       4277. kBytes
   fftplans  :       2150. kBytes
   grid      :       4525. kBytes
   one-center:        311. kBytes
   wavefun   :      70398. kBytes
 
 Broyden mixing: mesh for mixing (old mesh)
   NGX = 33   NGY = 11   NGZ = 19
  (NGX  =108   NGY  = 36   NGZ  = 60)
  gives a total of   6897 points

 initial charge density was supplied:
 charge density of overlapping atoms calculated
 number of electron     140.0000000 magnetization 
 keeping initial charge density in first step


--------------------------------------------------------------------------------------------------------


 Maximum index for non-local projection operator         1763
 Maximum index for augmentation-charges         1000 (set IRDMAX)


--------------------------------------------------------------------------------------------------------


 First call to EWALD:  gamma=   0.271
 Maximum number of real-space cells 2x 4x 3
 Maximum number of reciprocal cells 5x 2x 3

    FEWALD:  cpu time    0.01: real time    0.00


----------------------------------------- Iteration    1(   1)  ---------------------------------------


    POTLOK:  cpu time    0.04: real time    0.04
    SETDIJ:  cpu time    0.01: real time    0.01
     EDDAV:  cpu time   13.41: real time   13.45
       DOS:  cpu time    0.01: real time    0.01
    --------------------------------------------
      LOOP:  cpu time   13.48: real time   13.52

 eigenvalue-minimisations  : 10080
 total energy-change (2. order) : 0.9618748E+03  (-0.3872684E+04)
 number of electron     140.0000000 magnetization 
 augmentation part      140.0000000 magnetization 

 Free energy of the ion-electron system (eV)
  ---------------------------------------------------
  alpha Z        PSCENC =       328.47835764
  Ewald energy   TEWEN  =     -9385.83662641
  -1/2 Hartree   DENC   =     -5751.35264397
  -exchange  EXHF       =         0.00000000
  -V(xc)+E(xc)   XCENC  =       198.04810313
  PAW double counting   =     12944.06817004   -13682.94087883
  entropy T*S    EENTRO =         0.00778598
  eigenvalues    EBANDS =      1866.67118686
  atomic energy  EATOM  =     14444.73132951
  ---------------------------------------------------
  free energy    TOTEN  =       961.87478395 eV

  energy without entropy =      961.86699797  energy(sigma->0) =      961.87218862


--------------------------------------------------------------------------------------------------------




----------------------------------------- Iteration    1(   2)  ---------------------------------------


     EDDAV:  cpu time   13.96: real time   14.00
       DOS:  cpu time    0.00: real time    0.01
    --------------------------------------------
      LOOP:  cpu time   13.97: real time   14.01

 eigenvalue-minimisations  : 10080
 total energy-change (2. order) :-0.9482876E+03  (-0.9233016E+03)
 number of electron     140.0000000 magnetization 
 augmentation part      140.0000000 magnetization 

 Free energy of the ion-electron system (eV)
  ---------------------------------------------------
  alpha Z        PSCENC =       328.47835764
  Ewald energy   TEWEN  =     -9385.83662641
  -1/2 Hartree   DENC   =     -5751.35264397
  -exchange  EXHF       =         0.00000000
  -V(xc)+E(xc)   XCENC  =       198.04810313
  PAW double counting   =     12944.06817004   -13682.94087883
  entropy T*S    EENTRO =         0.00237848
  eigenvalues    EBANDS =       918.38901592
  atomic energy  EATOM  =     14444.73132951
  ---------------------------------------------------
  free energy    TOTEN  =        13.58720551 eV

  energy without entropy =       13.58482703  energy(sigma->0) =       13.58641268


--------------------------------------------------------------------------------------------------------




----------------------------------------- Iteration    1(   3)  ---------------------------------------


     EDDAV:  cpu time   15.54: real time   15.60
       DOS:  cpu time    0.00: real time    0.01
    --------------------------------------------
      LOOP:  cpu time   15.55: real time   15.61

 eigenvalue-minimisations  : 11684
 total energy-change (2. order) :-0.1056758E+03  (-0.9692298E+02)
 number of electron     140.0000000 magnetization 
 augmentation part      140.0000000 magnetization 

 Free energy of the ion-electron system (eV)
  ---------------------------------------------------
  alpha Z        PSCENC =       328.47835764
  Ewald energy   TEWEN  =     -9385.83662641
  -1/2 Hartree   DENC   =     -5751.35264397
  -exchange  EXHF       =         0.00000000
  -V(xc)+E(xc)   XCENC  =       198.04810313
  PAW double counting   =     12944.06817004   -13682.94087883
  entropy T*S    EENTRO =         0.00071604
  eigenvalues    EBANDS =       812.71485225
  atomic energy  EATOM  =     14444.73132951
  ---------------------------------------------------
  free energy    TOTEN  =       -92.08862060 eV

  energy without entropy =      -92.08933664  energy(sigma->0) =      -92.08885928


--------------------------------------------------------------------------------------------------------




----------------------------------------- Iteration    1(   4)  ---------------------------------------


     EDDAV:  cpu time   20.17: real time   20.24
       DOS:  cpu time    0.00: real time    0.01
    --------------------------------------------
      LOOP:  cpu time   20.18: real time   20.25

 eigenvalue-minimisations  : 15784
 total energy-change (2. order) :-0.5528140E+01  (-0.5407177E+01)
 number of electron     140.0000000 magnetization 
 augmentation part      140.0000000 magnetization 

 Free energy of the ion-electron system (eV)
  ---------------------------------------------------
  alpha Z        PSCENC =       328.47835764
  Ewald energy   TEWEN  =     -9385.83662641
  -1/2 Hartree   DENC   =     -5751.35264397
  -exchange  EXHF       =         0.00000000
  -V(xc)+E(xc)   XCENC  =       198.04810313
  PAW double counting   =     12944.06817004   -13682.94087883
  entropy T*S    EENTRO =         0.00356252
  eigenvalues    EBANDS =       807.18386543
  atomic energy  EATOM  =     14444.73132951
  ---------------------------------------------------
  free energy    TOTEN  =       -97.61676094 eV

  energy without entropy =      -97.62032346  energy(sigma->0) =      -97.61794845


--------------------------------------------------------------------------------------------------------




----------------------------------------- Iteration    1(   5)  ---------------------------------------


     EDDAV:  cpu time   19.98: real time   20.05
       DOS:  cpu time    0.01: real time    0.01
    CHARGE:  cpu time    0.57: real time    0.57
    MIXING:  cpu time    0.00: real time    0.00
    --------------------------------------------
      LOOP:  cpu time   20.57: real time   20.63

 eigenvalue-minimisations  : 15640
 total energy-change (2. order) :-0.1182971E+00  (-0.1179326E+00)
 number of electron     140.0001527 magnetization 
 augmentation part       60.2619970 magnetization 

 Broyden mixing:
  rms(total) = 0.38810E+01    rms(broyden)= 0.38806E+01
  rms(prec ) = 0.50597E+01
  weight for this iteration     100.00

 Free energy of the ion-electron system (eV)
  ---------------------------------------------------
  alpha Z        PSCENC =       328.47835764
  Ewald energy   TEWEN  =     -9385.83662641
  -1/2 Hartree   DENC   =     -5751.35264397
  -exchange  EXHF       =         0.00000000
  -V(xc)+E(xc)   XCENC  =       198.04810313
  PAW double counting   =     12944.06817004   -13682.94087883
  entropy T*S    EENTRO =         0.00343540
  eigenvalues    EBANDS =       807.06569547
  atomic energy  EATOM  =     14444.73132951
  ---------------------------------------------------
  free energy    TOTEN  =       -97.73505802 eV

  energy without entropy =      -97.73849342  energy(sigma->0) =      -97.73620316


--------------------------------------------------------------------------------------------------------




----------------------------------------- Iteration    1(   6)  ---------------------------------------


    POTLOK:  cpu time    0.04: real time    0.04
    SETDIJ:  cpu time    0.02: real time    0.01
    EDDIAG:  cpu time    2.08: real time    2.09
  RMM-DIIS:  cpu time    8.49: real time    8.53
    ORTHCH:  cpu time    0.52: real time    0.51
       DOS:  cpu time    0.00: real time    0.01
    CHARGE:  cpu time    0.58: real time    0.58
    MIXING:  cpu time    0.00: real time    0.00
    --------------------------------------------
      LOOP:  cpu time   11.73: real time   11.77

 eigenvalue-minimisations  : 10208
 total energy-change (2. order) :-0.7948000E+01  (-0.4724947E+02)
 number of electron     140.0001973 magnetization 
 augmentation part       76.6519793 magnetization 

 Broyden mixing:
  rms(total) = 0.30338E+01    rms(broyden)= 0.30330E+01
  rms(prec ) = 0.39191E+01
  weight for this iteration     100.00

 eigenvalues of (default mixing * dielectric matrix)
  average eigenvalue GAMMA=   0.5621
  0.5621

 Free energy of the ion-electron system (eV)
  ---------------------------------------------------
  alpha Z        PSCENC =       328.47835764
  Ewald energy   TEWEN  =     -9385.83662641
  -1/2 Hartree   DENC   =     -5207.16888053
  -exchange  EXHF       =         0.00000000
  -V(xc)+E(xc)   XCENC  =       176.05235514
  PAW double counting   =     13233.29494825   -13867.41403240
  entropy T*S    EENTRO =        -0.00275682
  eigenvalues    EBANDS =       172.18224786
  atomic energy  EATOM  =     14444.73132951
  ---------------------------------------------------
  free energy    TOTEN  =      -105.68305778 eV

  energy without entropy =     -105.68030095  energy(sigma->0) =     -105.68213884


--------------------------------------------------------------------------------------------------------




----------------------------------------- Iteration    1(   7)  ---------------------------------------


    POTLOK:  cpu time    0.04: real time    0.04
    SETDIJ:  cpu time    0.02: real time    0.01
    EDDIAG:  cpu time    2.07: real time    2.08
  RMM-DIIS:  cpu time    8.46: real time    8.49
    ORTHCH:  cpu time    0.51: real time    0.51
       DOS:  cpu time    0.01: real time    0.01
    CHARGE:  cpu time    0.57: real time    0.58
    MIXING:  cpu time    0.01: real time    0.00
    --------------------------------------------
      LOOP:  cpu time   11.69: real time   11.73

 eigenvalue-minimisations  : 10104
 total energy-change (2. order) : 0.2635021E+02  (-0.1010453E+02)
 number of electron     140.0001802 magnetization 
 augmentation part       70.2293839 magnetization 

 Broyden mixing:
  rms(total) = 0.40300E+00    rms(broyden)= 0.40247E+00
  rms(prec ) = 0.58190E+00
  weight for this iteration     100.00

 eigenvalues of (default mixing * dielectric matrix)
  average eigenvalue GAMMA=   1.0086
  0.6033  1.4139

 Free energy of the ion-electron system (eV)
  ---------------------------------------------------
  alpha Z        PSCENC =       328.47835764
  Ewald energy   TEWEN  =     -9385.83662641
  -1/2 Hartree   DENC   =     -5439.71213757
  -exchange  EXHF       =         0.00000000
  -V(xc)+E(xc)   XCENC  =       185.70886105
  PAW double counting   =     13892.43506084   -14620.44088284
  entropy T*S    EENTRO =        -0.00750392
  eigenvalues    EBANDS =       515.31068898
  atomic energy  EATOM  =     14444.73132951
  ---------------------------------------------------
  free energy    TOTEN  =       -79.33285272 eV

  energy without entropy =      -79.32534879  energy(sigma->0) =      -79.33035141


--------------------------------------------------------------------------------------------------------




----------------------------------------- Iteration    1(   8)  ---------------------------------------


    POTLOK:  cpu time    0.04: real time    0.04
    SETDIJ:  cpu time    0.01: real time    0.01
    EDDIAG:  cpu time    2.05: real time    2.06
  RMM-DIIS:  cpu time    8.50: real time    8.52
    ORTHCH:  cpu time    0.50: real time    0.50
       DOS:  cpu time    0.01: real time    0.01
    CHARGE:  cpu time    0.57: real time    0.57
    MIXING:  cpu time    0.00: real time    0.00
    --------------------------------------------
      LOOP:  cpu time   11.68: real time   11.72

 eigenvalue-minimisations  : 10195
 total energy-change (2. order) : 0.2126387E+00  (-0.9484899E+00)
 number of electron     140.0001756 magnetization 
 augmentation part       68.5505913 magnetization 

 Broyden mixing:
  rms(total) = 0.36810E+00    rms(broyden)= 0.36792E+00
  rms(prec ) = 0.46571E+00
  weight for this iteration     100.00

 eigenvalues of (default mixing * dielectric matrix)
  average eigenvalue GAMMA=   1.1751
  2.1066  0.7093  0.7093

 Free energy of the ion-electron system (eV)
  ---------------------------------------------------
  alpha Z        PSCENC =       328.47835764
  Ewald energy   TEWEN  =     -9385.83662641
  -1/2 Hartree   DENC   =     -5487.19531737
  -exchange  EXHF       =         0.00000000
  -V(xc)+E(xc)   XCENC  =       187.29199613
  PAW double counting   =     14582.17519284   -15340.12100991
  entropy T*S    EENTRO =        -0.00595648
  eigenvalues    EBANDS =       591.36181999
  atomic energy  EATOM  =     14444.73132951
  ---------------------------------------------------
  free energy    TOTEN  =       -79.12021405 eV

  energy without entropy =      -79.11425757  energy(sigma->0) =      -79.11822856


--------------------------------------------------------------------------------------------------------




----------------------------------------- Iteration    1(   9)  ---------------------------------------


    POTLOK:  cpu time    0.04: real time    0.04
    SETDIJ:  cpu time    0.02: real time    0.01
    EDDIAG:  cpu time    1.98: real time    2.00
  RMM-DIIS:  cpu time    7.99: real time    8.02
    ORTHCH:  cpu time    0.49: real time    0.49
       DOS:  cpu time    0.01: real time    0.01
    CHARGE:  cpu time    0.57: real time    0.57
    MIXING:  cpu time    0.00: real time    0.00
    --------------------------------------------
      LOOP:  cpu time   11.10: real time   11.14

 eigenvalue-minimisations  : 10334
 total energy-change (2. order) : 0.1715495E+00  (-0.7085989E-01)
 number of electron     140.0001771 magnetization 
 augmentation part       69.0666964 magnetization 

 Broyden mixing:
  rms(total) = 0.10334E+00    rms(broyden)= 0.10332E+00
  rms(prec ) = 0.14317E+00
  weight for this iteration     100.00

 eigenvalues of (default mixing * dielectric matrix)
  average eigenvalue GAMMA=   1.0336
  2.1784  0.7156  0.7156  0.5247

 Free energy of the ion-electron system (eV)
  ---------------------------------------------------
  alpha Z        PSCENC =       328.47835764
  Ewald energy   TEWEN  =     -9385.83662641
  -1/2 Hartree   DENC   =     -5460.78353788
  -exchange  EXHF       =         0.00000000
  -V(xc)+E(xc)   XCENC  =       186.14548136
  PAW double counting   =     15098.09635594   -15861.55893116
  entropy T*S    EENTRO =        -0.00651412
  eigenvalues    EBANDS =       571.78542056
  atomic energy  EATOM  =     14444.73132951
  ---------------------------------------------------
  free energy    TOTEN  =       -78.94866456 eV

  energy without entropy =      -78.94215044  energy(sigma->0) =      -78.94649319


--------------------------------------------------------------------------------------------------------




----------------------------------------- Iteration    1(  10)  ---------------------------------------


    POTLOK:  cpu time    0.04: real time    0.04
    SETDIJ:  cpu time    0.02: real time    0.01
    EDDIAG:  cpu time    2.03: real time    2.05
  RMM-DIIS:  cpu time    7.83: real time    7.85
    ORTHCH:  cpu time    0.50: real time    0.50
       DOS:  cpu time    0.00: real time    0.01
    CHARGE:  cpu time    0.57: real time    0.57
    MIXING:  cpu time    0.00: real time    0.00
    --------------------------------------------
      LOOP:  cpu time   10.99: real time   11.03

 eigenvalue-minimisations  : 10368
 total energy-change (2. order) : 0.1543484E-01  (-0.7179769E-02)
 number of electron     140.0001772 magnetization 
 augmentation part       69.1463633 magnetization 

 Broyden mixing:
  rms(total) = 0.57378E-01    rms(broyden)= 0.57372E-01
  rms(prec ) = 0.83739E-01
  weight for this iteration     100.00

 eigenvalues of (default mixing * dielectric matrix)
  average eigenvalue GAMMA=   1.2817
  2.2161  2.2161  0.7610  0.7610  0.4544

 Free energy of the ion-electron system (eV)
  ---------------------------------------------------
  alpha Z        PSCENC =       328.47835764
  Ewald energy   TEWEN  =     -9385.83662641
  -1/2 Hartree   DENC   =     -5457.10609902
  -exchange  EXHF       =         0.00000000
  -V(xc)+E(xc)   XCENC  =       186.04189576
  PAW double counting   =     15120.73970544   -15883.69752634
  entropy T*S    EENTRO =        -0.00646429
  eigenvalues    EBANDS =       567.72219798
  atomic energy  EATOM  =     14444.73132951
  ---------------------------------------------------
  free energy    TOTEN  =       -78.93322972 eV

  energy without entropy =      -78.92676543  energy(sigma->0) =      -78.93107496


--------------------------------------------------------------------------------------------------------




----------------------------------------- Iteration    1(  11)  ---------------------------------------


    POTLOK:  cpu time    0.04: real time    0.04
    SETDIJ:  cpu time    0.02: real time    0.01
    EDDIAG:  cpu time    2.02: real time    2.03
  RMM-DIIS:  cpu time    8.05: real time    8.08
    ORTHCH:  cpu time    0.51: real time    0.51
       DOS:  cpu time    0.01: real time    0.01
    CHARGE:  cpu time    0.57: real time    0.58
    MIXING:  cpu time    0.01: real time    0.00
    --------------------------------------------
      LOOP:  cpu time   11.23: real time   11.26

 eigenvalue-minimisations  : 10159
 total energy-change (2. order) : 0.9492693E-02  (-0.3895138E-02)
 number of electron     140.0001776 magnetization 
 augmentation part       69.2701051 magnetization 

 Broyden mixing:
  rms(total) = 0.89447E-02    rms(broyden)= 0.89152E-02
  rms(prec ) = 0.13988E-01
  weight for this iteration     100.00

 eigenvalues of (default mixing * dielectric matrix)
  average eigenvalue GAMMA=   1.2450
  2.3162  2.3162  0.7299  0.8271  0.8271  0.4536

 Free energy of the ion-electron system (eV)
  ---------------------------------------------------
  alpha Z        PSCENC =       328.47835764
  Ewald energy   TEWEN  =     -9385.83662641
  -1/2 Hartree   DENC   =     -5451.26295813
  -exchange  EXHF       =         0.00000000
  -V(xc)+E(xc)   XCENC  =       185.99967188
  PAW double counting   =     15130.98377915   -15892.84010977
  entropy T*S    EENTRO =        -0.00678761
  eigenvalues    EBANDS =       560.82960671
  atomic energy  EATOM  =     14444.73132951
  ---------------------------------------------------
  free energy    TOTEN  =       -78.92373703 eV

  energy without entropy =      -78.91694942  energy(sigma->0) =      -78.92147449


--------------------------------------------------------------------------------------------------------




----------------------------------------- Iteration    1(  12)  ---------------------------------------


    POTLOK:  cpu time    0.04: real time    0.04
    SETDIJ:  cpu time    0.01: real time    0.01
    EDDIAG:  cpu time    2.09: real time    2.10
  RMM-DIIS:  cpu time    9.82: real time    9.86
    ORTHCH:  cpu time    0.51: real time    0.50
       DOS:  cpu time    0.00: real time    0.01
    CHARGE:  cpu time    0.57: real time    0.57
    MIXING:  cpu time    0.00: real time    0.00
    --------------------------------------------
      LOOP:  cpu time   13.04: real time   13.09

 eigenvalue-minimisations  : 12123
 total energy-change (2. order) : 0.1117012E-04  (-0.4205353E-03)
 number of electron     140.0001777 magnetization 
 augmentation part       69.2930010 magnetization 

 Broyden mixing:
  rms(total) = 0.69527E-02    rms(broyden)= 0.69484E-02
  rms(prec ) = 0.10742E-01
  weight for this iteration     100.00

 eigenvalues of (default mixing * dielectric matrix)
  average eigenvalue GAMMA=   1.2984
  2.4319  2.4319  1.1410  1.1410  0.7444  0.7444  0.4543

 Free energy of the ion-electron system (eV)
  ---------------------------------------------------
  alpha Z        PSCENC =       328.47835764
  Ewald energy   TEWEN  =     -9385.83662641
  -1/2 Hartree   DENC   =     -5450.92490648
  -exchange  EXHF       =         0.00000000
  -V(xc)+E(xc)   XCENC  =       185.97715276
  PAW double counting   =     15141.13896699   -15902.95554934
  entropy T*S    EENTRO =        -0.00677699
  eigenvalues    EBANDS =       560.47432646
  atomic energy  EATOM  =     14444.73132951
  ---------------------------------------------------
  free energy    TOTEN  =       -78.92372586 eV

  energy without entropy =      -78.91694886  energy(sigma->0) =      -78.92146686


--------------------------------------------------------------------------------------------------------




----------------------------------------- Iteration    1(  13)  ---------------------------------------


    POTLOK:  cpu time    0.05: real time    0.04
    SETDIJ:  cpu time    0.01: real time    0.01
    EDDIAG:  cpu time    2.08: real time    2.09
  RMM-DIIS:  cpu time    8.57: real time    8.60
    ORTHCH:  cpu time    0.50: real time    0.50
       DOS:  cpu time    0.01: real time    0.01
    CHARGE:  cpu time    0.56: real time    0.57
    MIXING:  cpu time    0.00: real time    0.00
    --------------------------------------------
      LOOP:  cpu time   11.78: real time   11.83

 eigenvalue-minimisations  : 10377
 total energy-change (2. order) : 0.6702551E-04  (-0.2039983E-03)
 number of electron     140.0001776 magnetization 
 augmentation part       69.2800579 magnetization 

 Broyden mixing:
  rms(total) = 0.39657E-02    rms(broyden)= 0.39650E-02
  rms(prec ) = 0.67121E-02
  weight for this iteration     100.00

 eigenvalues of (default mixing * dielectric matrix)
  average eigenvalue GAMMA=   1.2912
  2.5770  2.5770  1.2358  1.2358  0.4538  0.7564  0.7564  0.7375

 Free energy of the ion-electron system (eV)
  ---------------------------------------------------
  alpha Z        PSCENC =       328.47835764
  Ewald energy   TEWEN  =     -9385.83662641
  -1/2 Hartree   DENC   =     -5452.03625518
  -exchange  EXHF       =         0.00000000
  -V(xc)+E(xc)   XCENC  =       186.01373734
  PAW double counting   =     15134.31560467   -15895.87620452
  entropy T*S    EENTRO =        -0.00673021
  eigenvalues    EBANDS =       561.29312834
  atomic energy  EATOM  =     14444.73132951
  ---------------------------------------------------
  free energy    TOTEN  =       -78.92365883 eV

  energy without entropy =      -78.91692862  energy(sigma->0) =      -78.92141543


--------------------------------------------------------------------------------------------------------




----------------------------------------- Iteration    1(  14)  ---------------------------------------


    POTLOK:  cpu time    0.04: real time    0.04
    SETDIJ:  cpu time    0.02: real time    0.01
    EDDIAG:  cpu time    2.06: real time    2.07
  RMM-DIIS:  cpu time    8.60: real time    8.62
    ORTHCH:  cpu time    0.49: real time    0.49
       DOS:  cpu time    0.00: real time    0.01
    CHARGE:  cpu time    0.57: real time    0.57
    MIXING:  cpu time    0.00: real time    0.00
    --------------------------------------------
      LOOP:  cpu time   11.79: real time   11.83

 eigenvalue-minimisations  : 10477
 total energy-change (2. order) : 0.8196519E-04  (-0.1826578E-04)
 number of electron     140.0001777 magnetization 
 augmentation part       69.2862364 magnetization 

 Broyden mixing:
  rms(total) = 0.19421E-02    rms(broyden)= 0.19417E-02
  rms(prec ) = 0.26750E-02
  weight for this iteration     100.00

 eigenvalues of (default mixing * dielectric matrix)
  average eigenvalue GAMMA=   1.2305
  2.6523  2.4667  1.3142  1.3142  0.8948  0.7652  0.7652  0.4554  0.4469

 Free energy of the ion-electron system (eV)
  ---------------------------------------------------
  alpha Z        PSCENC =       328.47835764
  Ewald energy   TEWEN  =     -9385.83662641
  -1/2 Hartree   DENC   =     -5451.60681333
  -exchange  EXHF       =         0.00000000
  -V(xc)+E(xc)   XCENC  =       186.01001937
  PAW double counting   =     15136.26025550   -15897.82417921
  entropy T*S    EENTRO =        -0.00674734
  eigenvalues    EBANDS =       560.87082740
  atomic energy  EATOM  =     14444.73132951
  ---------------------------------------------------
  free energy    TOTEN  =       -78.92357687 eV

  energy without entropy =      -78.91682953  energy(sigma->0) =      -78.92132776


--------------------------------------------------------------------------------------------------------




----------------------------------------- Iteration    1(  15)  ---------------------------------------


    POTLOK:  cpu time    0.04: real time    0.04
    SETDIJ:  cpu time    0.02: real time    0.01
    EDDIAG:  cpu time    1.93: real time    1.94
  RMM-DIIS:  cpu time    7.60: real time    7.62
    ORTHCH:  cpu time    0.46: real time    0.47
       DOS:  cpu time    0.01: real time    0.01
    CHARGE:  cpu time    0.57: real time    0.57
    MIXING:  cpu time    0.00: real time    0.00
    --------------------------------------------
      LOOP:  cpu time   10.63: real time   10.66

 eigenvalue-minimisations  : 10257
 total energy-change (2. order) :-0.1981905E-04  (-0.1668627E-04)
 number of electron     140.0001777 magnetization 
 augmentation part       69.2910958 magnetization 

 Broyden mixing:
  rms(total) = 0.27028E-02    rms(broyden)= 0.27025E-02
  rms(prec ) = 0.40163E-02
  weight for this iteration     100.00

 eigenvalues of (default mixing * dielectric matrix)
  average eigenvalue GAMMA=   1.2265
  2.7876  2.5580  1.4445  1.4445  0.8081  0.8081  0.7143  0.7143  0.4542  0.5315

 Free energy of the ion-electron system (eV)
  ---------------------------------------------------
  alpha Z        PSCENC =       328.47835764
  Ewald energy   TEWEN  =     -9385.83662641
  -1/2 Hartree   DENC   =     -5451.34523321
  -exchange  EXHF       =         0.00000000
  -V(xc)+E(xc)   XCENC  =       186.00440846
  PAW double counting   =     15136.44471672   -15898.01777038
  entropy T*S    EENTRO =        -0.00675988
  eigenvalues    EBANDS =       560.62398086
  atomic energy  EATOM  =     14444.73132951
  ---------------------------------------------------
  free energy    TOTEN  =       -78.92359669 eV

  energy without entropy =      -78.91683680  energy(sigma->0) =      -78.92134339


--------------------------------------------------------------------------------------------------------




----------------------------------------- Iteration    1(  16)  ---------------------------------------


    POTLOK:  cpu time    0.03: real time    0.04
    SETDIJ:  cpu time    0.02: real time    0.01
    EDDIAG:  cpu time    1.98: real time    2.00
  RMM-DIIS:  cpu time    7.40: real time    7.42
    ORTHCH:  cpu time    0.47: real time    0.47
       DOS:  cpu time    0.01: real time    0.01
    CHARGE:  cpu time    0.57: real time    0.57
    MIXING:  cpu time    0.00: real time    0.00
    --------------------------------------------
      LOOP:  cpu time   10.49: real time   10.52

 eigenvalue-minimisations  :  9576
 total energy-change (2. order) : 0.1859985E-04  (-0.9916172E-06)
 number of electron     140.0001777 magnetization 
 augmentation part       69.2893409 magnetization 

 Broyden mixing:
  rms(total) = 0.15588E-02    rms(broyden)= 0.15587E-02
  rms(prec ) = 0.25103E-02
  weight for this iteration     100.00

 eigenvalues of (default mixing * dielectric matrix)
  average eigenvalue GAMMA=   1.2797
  2.6857  2.4373  1.5356  1.5356  1.1904  1.1904  1.0643  0.7498  0.7498  0.4539
  0.4842

 Free energy of the ion-electron system (eV)
  ---------------------------------------------------
  alpha Z        PSCENC =       328.47835764
  Ewald energy   TEWEN  =     -9385.83662641
  -1/2 Hartree   DENC   =     -5451.50723572
  -exchange  EXHF       =         0.00000000
  -V(xc)+E(xc)   XCENC  =       186.00874544
  PAW double counting   =     15132.30859252   -15893.85456722
  entropy T*S    EENTRO =        -0.00675391
  eigenvalues    EBANDS =       560.75458007
  atomic energy  EATOM  =     14444.73132951
  ---------------------------------------------------
  free energy    TOTEN  =       -78.92357809 eV

  energy without entropy =      -78.91682417  energy(sigma->0) =      -78.92132678


--------------------------------------------------------------------------------------------------------




----------------------------------------- Iteration    1(  17)  ---------------------------------------


    POTLOK:  cpu time    0.04: real time    0.04
    SETDIJ:  cpu time    0.02: real time    0.01
    EDDIAG:  cpu time    1.98: real time    1.99
  RMM-DIIS:  cpu time    7.89: real time    7.92
    ORTHCH:  cpu time    0.49: real time    0.49
       DOS:  cpu time    0.01: real time    0.01
    CHARGE:  cpu time    0.57: real time    0.57
    MIXING:  cpu time    0.00: real time    0.00
    --------------------------------------------
      LOOP:  cpu time   11.00: real time   11.04

 eigenvalue-minimisations  : 10130
 total energy-change (2. order) : 0.7917224E-05  (-0.6028950E-05)
 number of electron     140.0001776 magnetization 
 augmentation part       69.2844398 magnetization 

 Broyden mixing:
  rms(total) = 0.58259E-03    rms(broyden)= 0.58208E-03
  rms(prec ) = 0.68191E-03
  weight for this iteration     100.00

 eigenvalues of (default mixing * dielectric matrix)
  average eigenvalue GAMMA=   1.3050
  2.7193  2.4724  1.9511  1.9511  1.1604  1.1604  1.1109  0.7499  0.7499  0.4539
  0.4877  0.6936

 Free energy of the ion-electron system (eV)
  ---------------------------------------------------
  alpha Z        PSCENC =       328.47835764
  Ewald energy   TEWEN  =     -9385.83662641
  -1/2 Hartree   DENC   =     -5451.69261536
  -exchange  EXHF       =         0.00000000
  -V(xc)+E(xc)   XCENC  =       186.01142707
  PAW double counting   =     15132.53265102   -15894.14776632
  entropy T*S    EENTRO =        -0.00674501
  eigenvalues    EBANDS =       561.00641770
  atomic energy  EATOM  =     14444.73132951
  ---------------------------------------------------
  free energy    TOTEN  =       -78.92357017 eV

  energy without entropy =      -78.91682516  energy(sigma->0) =      -78.92132183


--------------------------------------------------------------------------------------------------------




----------------------------------------- Iteration    1(  18)  ---------------------------------------


    POTLOK:  cpu time    0.04: real time    0.04
    SETDIJ:  cpu time    0.02: real time    0.01
    EDDIAG:  cpu time    2.03: real time    2.04
  RMM-DIIS:  cpu time    6.68: real time    6.70
    ORTHCH:  cpu time    0.48: real time    0.48
       DOS:  cpu time    0.01: real time    0.01
    --------------------------------------------
      LOOP:  cpu time    9.26: real time    9.29

 eigenvalue-minimisations  :  8177
 total energy-change (2. order) :-0.6086175E-06  (-0.4749290E-06)
 number of electron     140.0001776 magnetization 
 augmentation part       69.2844398 magnetization 

 Free energy of the ion-electron system (eV)
  ---------------------------------------------------
  alpha Z        PSCENC =       328.47835764
  Ewald energy   TEWEN  =     -9385.83662641
  -1/2 Hartree   DENC   =     -5451.68271995
  -exchange  EXHF       =         0.00000000
  -V(xc)+E(xc)   XCENC  =       186.01116779
  PAW double counting   =     15131.51631581   -15893.13703377
  entropy T*S    EENTRO =        -0.00674552
  eigenvalues    EBANDS =       561.00238412
  atomic energy  EATOM  =     14444.73132951
  ---------------------------------------------------
  free energy    TOTEN  =       -78.92357078 eV

  energy without entropy =      -78.91682526  energy(sigma->0) =      -78.92132227


--------------------------------------------------------------------------------------------------------




 average (electrostatic) potential at core
  the test charge radii are     0.9430  1.0406
  (the norm of the test charge is              1.0000)
       1 -64.0725       2 -64.0725       3 -64.2168       4 -64.2168       5 -64.2168
       6 -64.2168       7 -64.1284       8 -64.1284       9 -64.1284      10 -64.1284
      11 -72.3997      12 -72.3997      13 -72.4701      14 -72.4701      15 -72.4701
      16 -72.4701      17 -72.4352      18 -72.4352      19 -72.4352      20 -72.4352
 
 
 
 E-fermi :   8.2519     XC(G=0): -11.2781     alpha+bet :-14.5017


 k-point   1 :       0.1250    0.0000    0.0833
  band No.  band energies     occupation 
      1      -2.5832      2.00000
      2      -1.2172      2.00000
      3      -1.0017      2.00000
      4       0.0118      2.00000
      5       1.0425      2.00000
      6       1.1670      2.00000
      7       1.3506      2.00000
      8       1.9530      2.00000
      9       2.1025      2.00000
     10       2.5984      2.00000
     11       2.6275      2.00000
     12       2.7551      2.00000
     13       3.2117      2.00000
     14       3.2435      2.00000
     15       3.2632      2.00000
     16       3.3348      2.00000
     17       3.3853      2.00000
     18       3.4773      2.00000
     19       3.4916      2.00000
     20       3.5047      2.00000
     21       3.5591      2.00000
     22       3.5643      2.00000
     23       3.6427      2.00000
     24       3.6847      2.00000
     25       3.6868      2.00000
     26       3.7264      2.00000
     27       3.7315      2.00000
     28       3.7347      2.00000
     29       3.8808      2.00000
     30       3.9155      2.00000
     31       4.0084      2.00000
     32       4.0102      2.00000
     33       4.0444      2.00000
     34       4.1325      2.00000
     35       4.1636      2.00000
     36       4.2774      2.00000
     37       4.3131      2.00000
     38       4.3148      2.00000
     39       4.3802      2.00000
     40       4.4098      2.00000
     41       4.4229      2.00000
     42       4.4780      2.00000
     43       4.4873      2.00000
     44       4.5270      2.00000
     45       4.5504      2.00000
     46       4.5642      2.00000
     47       4.5664      2.00000
     48       4.5897      2.00000
     49       4.6643      2.00000
     50       4.7093      2.00000
     51       4.7662      2.00000
     52       4.7749      2.00000
     53       4.9051      2.00000
     54       4.9150      2.00000
     55       4.9305      2.00000
     56       4.9698      2.00000
     57       5.1686      2.00000
     58       5.2672      2.00000
     59       5.5373      2.00000
     60       5.5825      2.00000
     61       5.6869      2.00000
     62       5.9829      2.00000
     63       6.1336      2.00000
     64       6.9177      2.00000
     65       7.6649      2.00027
     66       8.0511      2.05110
     67       8.2714      0.83563
     68       8.8806     -0.00008
     69       9.0069      0.00000
     70       9.2689      0.00000
     71       9.2790      0.00000
     72       9.5105      0.00000
     73       9.9661      0.00000
     74      10.3329      0.00000
     75      10.4216      0.00000
     76      10.5010      0.00000
     77      10.5451      0.00000
     78      10.9074      0.00000
     79      10.9432      0.00000
     80      11.1818      0.00000
     81      11.3997      0.00000
     82      11.4734      0.00000
     83      11.7196      0.00000
     84      11.8456      0.00000

 k-point   2 :       0.3750    0.0000    0.0833
  band No.  band energies     occupation 
      1      -2.4572      2.00000
      2      -1.8273      2.00000
      3      -0.2822      2.00000
      4       0.2309      2.00000
      5       0.6345      2.00000
      6       1.1402      2.00000
      7       1.3690      2.00000
      8       1.6313      2.00000
      9       2.1497      2.00000
     10       2.5959      2.00000
     11       2.6084      2.00000
     12       3.1137      2.00000
     13       3.1941      2.00000
     14       3.2210      2.00000
     15       3.2585      2.00000
     16       3.2629      2.00000
     17       3.3013      2.00000
     18       3.4436      2.00000
     19       3.4933      2.00000
     20       3.5022      2.00000
     21       3.6276      2.00000
     22       3.6320      2.00000
     23       3.6998      2.00000
     24       3.6998      2.00000
     25       3.7056      2.00000
     26       3.7297      2.00000
     27       3.7460      2.00000
     28       3.7687      2.00000
     29       3.8814      2.00000
     30       3.8990      2.00000
     31       3.9297      2.00000
     32       3.9952      2.00000
     33       4.0239      2.00000
     34       4.1181      2.00000
     35       4.2618      2.00000
     36       4.2635      2.00000
     37       4.2694      2.00000
     38       4.2886      2.00000
     39       4.3674      2.00000
     40       4.3987      2.00000
     41       4.4354      2.00000
     42       4.4409      2.00000
     43       4.4751      2.00000
     44       4.5294      2.00000
     45       4.5571      2.00000
     46       4.5793      2.00000
     47       4.5875      2.00000
     48       4.6498      2.00000
     49       4.6786      2.00000
     50       4.7083      2.00000
     51       4.7203      2.00000
     52       4.7366      2.00000
     53       4.8502      2.00000
     54       4.9048      2.00000
     55       4.9118      2.00000
     56       4.9258      2.00000
     57       5.1599      2.00000
     58       5.1761      2.00000
     59       5.4256      2.00000
     60       5.6176      2.00000
     61       5.7349      2.00000
     62       6.0051      2.00000
     63       6.6587      2.00000
     64       6.8501      2.00000
     65       6.9581      2.00000
     66       8.6692     -0.01196
     67       8.7489     -0.00247
     68       9.1093      0.00000
     69       9.1114      0.00000
     70       9.2914      0.00000
     71       9.4149      0.00000
     72       9.6259      0.00000
     73       9.7134      0.00000
     74      10.0738      0.00000
     75      10.2553      0.00000
     76      10.3450      0.00000
     77      10.4937      0.00000
     78      10.5698      0.00000
     79      10.6161      0.00000
     80      11.0508      0.00000
     81      11.0778      0.00000
     82      11.6988      0.00000
[...]
     74       9.0219      0.00000
     75       9.0865      0.00000
     76       9.1602      0.00000
     77       9.4218      0.00000
     78       9.6613      0.00000
     79      10.0911      0.00000
     80      10.2671      0.00000
     81      10.5164      0.00000
     82      10.8606      0.00000
     83      12.0583      0.00000
     84      12.4321      0.00000

 k-point  59 :      -0.3750    0.4444    0.4167
  band No.  band energies     occupation 
      1      -0.3049      2.00000
      2       0.1486      2.00000
      3       0.5272      2.00000
      4       0.6282      2.00000
      5       1.0033      2.00000
      6       1.0458      2.00000
      7       1.3526      2.00000
      8       1.5862      2.00000
      9       1.8755      2.00000
     10       1.8864      2.00000
     11       2.3659      2.00000
     12       2.3815      2.00000
     13       2.4538      2.00000
     14       2.5441      2.00000
     15       3.3192      2.00000
     16       3.3517      2.00000
     17       3.4119      2.00000
     18       3.4812      2.00000
     19       3.5344      2.00000
     20       3.5522      2.00000
     21       3.6112      2.00000
     22       3.6293      2.00000
     23       3.7580      2.00000
     24       3.7646      2.00000
     25       3.8447      2.00000
     26       3.8468      2.00000
     27       3.8789      2.00000
     28       3.9358      2.00000
     29       3.9750      2.00000
     30       3.9906      2.00000
     31       4.0722      2.00000
     32       4.1147      2.00000
     33       4.1685      2.00000
     34       4.1706      2.00000
     35       4.2082      2.00000
     36       4.2141      2.00000
     37       4.2378      2.00000
     38       4.2426      2.00000
     39       4.3357      2.00000
     40       4.3757      2.00000
     41       4.3881      2.00000
     42       4.3943      2.00000
     43       4.4568      2.00000
     44       4.5130      2.00000
     45       4.5291      2.00000
     46       4.5444      2.00000
     47       4.6065      2.00000
     48       4.6677      2.00000
     49       4.7208      2.00000
     50       4.7474      2.00000
     51       4.7576      2.00000
     52       4.7811      2.00000
     53       4.8393      2.00000
     54       4.8694      2.00000
     55       4.9028      2.00000
     56       4.9153      2.00000
     57       4.9654      2.00000
     58       4.9771      2.00000
     59       5.0235      2.00000
     60       5.1208      2.00000
     61       5.2282      2.00000
     62       5.2866      2.00000
     63       5.5551      2.00000
     64       5.9179      2.00000
     65       6.0319      2.00000
     66       6.2077      2.00000
     67       6.2842      2.00000
     68       6.4842      2.00000
     69       7.1041      2.00000
     70       7.4842      2.00000
     71       8.2961      0.61665
     72       8.9119     -0.00003
     73       9.1509      0.00000
     74       9.2457      0.00000
     75       9.2957      0.00000
     76       9.4868      0.00000
     77       9.7894      0.00000
     78       9.9441      0.00000
     79       9.9553      0.00000
     80      10.4070      0.00000
     81      10.5641      0.00000
     82      11.0940      0.00000
     83      11.2538      0.00000
     84      11.8160      0.00000

 k-point  60 :      -0.1250    0.4444    0.4167
  band No.  band energies     occupation 
      1      -0.1060      2.00000
      2       0.0447      2.00000
      3       0.4396      2.00000
      4       0.6447      2.00000
      5       0.7891      2.00000
      6       0.9080      2.00000
      7       1.2662      2.00000
      8       1.4758      2.00000
      9       2.1816      2.00000
     10       2.2236      2.00000
     11       2.2901      2.00000
     12       2.4090      2.00000
     13       2.6578      2.00000
     14       2.8645      2.00000
     15       3.1403      2.00000
     16       3.2324      2.00000
     17       3.3582      2.00000
     18       3.4246      2.00000
     19       3.4339      2.00000
     20       3.5505      2.00000
     21       3.6449      2.00000
     22       3.6678      2.00000
     23       3.7865      2.00000
     24       3.8153      2.00000
     25       3.8183      2.00000
     26       3.8726      2.00000
     27       3.9559      2.00000
     28       3.9676      2.00000
     29       4.0127      2.00000
     30       4.0476      2.00000
     31       4.0724      2.00000
     32       4.0911      2.00000
     33       4.1553      2.00000
     34       4.1840      2.00000
     35       4.2104      2.00000
     36       4.2116      2.00000
     37       4.2658      2.00000
     38       4.2888      2.00000
     39       4.3334      2.00000
     40       4.3447      2.00000
     41       4.3588      2.00000
     42       4.3759      2.00000
     43       4.4186      2.00000
     44       4.4747      2.00000
     45       4.5026      2.00000
     46       4.5847      2.00000
     47       4.5983      2.00000
     48       4.6559      2.00000
     49       4.6952      2.00000
     50       4.7058      2.00000
     51       4.7127      2.00000
     52       4.7899      2.00000
     53       4.8586      2.00000
     54       4.8843      2.00000
     55       4.8876      2.00000
     56       4.9183      2.00000
     57       4.9600      2.00000
     58       4.9619      2.00000
     59       4.9806      2.00000
     60       5.0685      2.00000
     61       5.2083      2.00000
     62       5.2600      2.00000
     63       5.5337      2.00000
     64       5.6496      2.00000
     65       5.9022      2.00000
     66       6.0146      2.00000
     67       6.4029      2.00000
     68       6.4046      2.00000
     69       6.8639      2.00000
     70       6.9619      2.00000
     71       9.0926      0.00000
     72       9.3506      0.00000
     73       9.5180      0.00000
     74       9.5434      0.00000
     75       9.7496      0.00000
     76       9.8816      0.00000
     77      10.1184      0.00000
     78      10.1904      0.00000
     79      10.5505      0.00000
     80      10.7045      0.00000
     81      10.7565      0.00000
     82      10.9862      0.00000
     83      11.0420      0.00000
     84      11.2864      0.00000


--------------------------------------------------------------------------------------------------------


 soft charge-density along one line, spin component           1
         0         1         2         3         4         5         6         7         8         9
 total charge-density along one line
 
 pseudopotential strength for first ion, spin component:           1
 -3.232   0.003   0.000   0.000   0.000  -4.451  -0.003   0.000
  0.003  -3.196   0.000   0.000   0.000  -0.003  -4.477   0.000
  0.000   0.000  -3.200   0.001  -0.031   0.000   0.000  -4.476
  0.000   0.000   0.001  -3.171   0.003   0.000   0.000  -0.001
  0.000   0.000  -0.031   0.003  -3.219   0.000   0.000   0.023
 -4.451  -0.003   0.000   0.000   0.000  10.081   0.002   0.000
 -0.003  -4.477   0.000   0.000   0.000   0.002  10.096   0.000
  0.000   0.000  -4.476  -0.001   0.023   0.000   0.000  10.096
  0.000   0.000  -0.001  -4.496  -0.002   0.000   0.000   0.001
  0.000   0.000   0.023  -0.002  -4.460   0.000   0.000  -0.017
  0.000   0.000  -0.004  -0.001  -0.003   0.000   0.000   0.000
  0.000   0.000  -0.008  -0.002  -0.006   0.000   0.000   0.000
  0.000   0.000   0.000   0.000   0.000   0.000   0.000   0.000
  0.000   0.000   0.000   0.000   0.000   0.000   0.000   0.000
  0.000   0.000   0.000   0.000   0.000   0.000   0.000   0.000
  0.000   0.000   0.000   0.000   0.000   0.000   0.000   0.000
  0.000   0.000   0.000   0.000   0.000   0.000   0.000   0.000
  0.000   0.000   0.000   0.000   0.000   0.000   0.000   0.000
 total augmentation occupancy for first ion, spin component:           1
  1.910   0.001   0.000   0.000   0.000  -0.001  -0.001   0.000   0.000   0.000   0.000   0.000   0.000   0.000   0.000   0.000
  0.001   1.927   0.000   0.000   0.000  -0.001  -0.040   0.000   0.000   0.000   0.000   0.000   0.000   0.000   0.000   0.000
  0.000   0.000   1.903   0.000  -0.009   0.000   0.000  -0.007  -0.001   0.010  -0.005   0.004   0.000   0.000   0.000   0.000
  0.000   0.000   0.000   1.910   0.001   0.000   0.000   0.000  -0.024  -0.001  -0.002   0.002   0.000   0.000   0.000   0.000
  0.000   0.000  -0.009   0.001   1.907   0.000   0.000   0.010  -0.001  -0.017  -0.031  -0.009   0.000   0.000   0.000   0.000
 -0.001  -0.001   0.000   0.000   0.000   0.015   0.000   0.000   0.000   0.000   0.000   0.000   0.000   0.000   0.000   0.000
 -0.001  -0.040   0.000   0.000   0.000   0.000   0.009   0.000   0.000   0.000   0.000   0.000   0.000   0.000   0.000   0.000
  0.000   0.000  -0.007   0.000   0.010   0.000   0.000   0.015   0.000  -0.001  -0.026   0.002   0.000   0.000   0.000   0.000
  0.000   0.000  -0.001  -0.024  -0.001   0.000   0.000   0.000   0.018   0.000  -0.006   0.000   0.000   0.000   0.000   0.000
  0.000   0.000   0.010  -0.001  -0.017   0.000   0.000  -0.001   0.000   0.015   0.020  -0.002   0.000   0.000   0.000   0.000
  0.000   0.000  -0.005  -0.002  -0.031   0.000   0.000  -0.026  -0.006   0.020   1.844  -0.170   0.000   0.000   0.000   0.000
  0.000   0.000   0.004   0.002  -0.009   0.000   0.000   0.002   0.000  -0.002  -0.170   0.023   0.000   0.000   0.000   0.000
  0.000   0.000   0.000   0.000   0.000   0.000   0.000   0.000   0.000   0.000   0.000   0.000   0.304   0.000   0.000  -0.015
  0.000   0.000   0.000   0.000   0.000   0.000   0.000   0.000   0.000   0.000   0.000   0.000   0.000   0.277  -0.008   0.000
  0.000   0.000   0.000   0.000   0.000   0.000   0.000   0.000   0.000   0.000   0.000   0.000   0.000  -0.008   0.338   0.000
  0.000   0.000   0.000   0.000   0.000   0.000   0.000   0.000   0.000   0.000   0.000   0.000  -0.015   0.000   0.000   0.001
  0.000   0.000   0.000   0.000   0.000   0.000   0.000   0.000   0.000   0.000   0.000   0.000   0.000  -0.015   0.000   0.000
  0.000   0.000   0.000   0.000   0.000   0.000   0.000   0.000   0.000   0.000   0.000   0.000   0.000   0.000  -0.020   0.000


------------------------ aborting loop because EDIFF is reached ----------------------------------------


    CHARGE:  cpu time    0.57: real time    0.57
    FORLOC:  cpu time    0.01: real time    0.01
    FORNL :  cpu time    4.25: real time    4.27
    STRESS:  cpu time   12.97: real time   13.02
    FORCOR:  cpu time    0.05: real time    0.05
    FORHAR:  cpu time    0.02: real time    0.02
    MIXING:  cpu time    0.01: real time    0.00

  FORCE on cell =-STRESS in cart. coord.  units (eV):
  Direction    XX          YY          ZZ          XY          YZ          ZX
  --------------------------------------------------------------------------------------
  Alpha Z   328.64093   328.64093   328.64093
  Ewald   -2710.87861 -3367.81926 -3313.73311     0.00000     0.00000  -161.21809
  Hartree  2143.32591  1609.93235  1692.36157     0.00000     0.00000  -130.90615
  E(xc)    -729.58661  -729.81176  -729.55970     0.00000     0.00000     0.02733
  Local   -1018.18942   171.77797    31.88765     0.00000     0.00000   291.27973
  n-local    -7.54422    -5.95985   -12.58876     0.09253     0.74459    -0.91855
  augment   943.00114   942.75143   946.82680    -0.00005    -0.00007     0.68454
  Kinetic  1051.25749  1050.51839  1056.17076     1.65564     3.56990     1.11082
  Fock        0.00000     0.00000     0.00000     0.00000     0.00000     0.00000
  -------------------------------------------------------------------------------------
  Total       0.02660     0.03021     0.00615     0.00000     0.00000     0.05963
  in kB       0.15305     0.17380     0.03539     0.00000     0.00000     0.34309
  external pressure =        0.12 kB  Pullay stress =        0.00 kB


 VOLUME and BASIS-vectors are now :
 -----------------------------------------------------------------------------
  energy-cutoff  :      295.45
  volume of cell :      278.45
      direct lattice vectors                 reciprocal lattice vectors
    12.055524333  0.000000000 -0.001098830     0.082944228  0.000000000 -0.058098700
     0.000000000  4.087820076  0.000000000     0.000000000  0.244629162  0.000000000
     3.957534688  0.000000000  5.649948430     0.000016131  0.000000000  0.176981467

  length of vectors
    12.055524384  4.087820076  6.898115545     0.101267981  0.244629162  0.176981467


 FORCES acting on ions
    electron-ion (+dipol)            ewald-force                    non-local-force                 convergence-correction
 -----------------------------------------------------------------------------------------------
   -.448E-12 0.295E-13 -.281E-12   -.320E-13 -.530E-14 0.515E-13   0.000E+00 0.000E+00 0.000E+00   0.217E-11 0.541E-14 0.179E-11
   0.417E-11 0.116E-10 0.644E-11   -.195E-13 -.506E-14 0.764E-13   0.000E+00 0.000E+00 0.000E+00   -.165E-11 -.167E-12 -.203E-11
   0.934E+02 0.815E-13 0.237E+03   -.947E+02 0.144E-14 -.238E+03   0.134E+01 0.000E+00 0.700E+00   -.484E-02 0.822E-13 0.209E-02
   -.934E+02 -.492E-13 -.237E+03   0.947E+02 0.456E-14 0.238E+03   -.134E+01 0.347E-17 -.700E+00   0.484E-02 0.980E-13 -.209E-02
   0.934E+02 -.142E-11 0.237E+03   -.947E+02 -.163E-14 -.238E+03   0.134E+01 0.000E+00 0.700E+00   -.484E-02 -.121E-13 0.209E-02
   -.934E+02 0.436E-11 -.237E+03   0.947E+02 0.150E-14 0.238E+03   -.134E+01 0.347E-17 -.700E+00   0.484E-02 -.112E-12 -.209E-02
   0.581E+02 0.113E-12 -.166E+03   -.590E+02 0.142E-13 0.166E+03   0.884E+00 0.000E+00 0.814E+00   0.322E-02 0.105E-12 -.395E-02
   -.581E+02 -.152E-12 0.166E+03   0.590E+02 -.245E-13 -.166E+03   -.884E+00 0.000E+00 -.814E+00   -.322E-02 -.110E-14 0.395E-02
   0.581E+02 0.164E-11 -.166E+03   -.590E+02 0.126E-13 0.166E+03   0.884E+00 0.000E+00 0.814E+00   0.322E-02 0.133E-12 -.395E-02
   -.581E+02 0.184E-11 0.166E+03   0.590E+02 -.261E-13 -.166E+03   -.884E+00 0.000E+00 -.814E+00   -.322E-02 -.172E-12 0.395E-02
   0.651E-13 -.104E-13 -.947E-14   -.244E-13 -.209E-14 0.369E-13   0.000E+00 0.000E+00 0.000E+00   -.428E-12 -.639E-14 -.345E-12
   0.821E-12 -.138E-13 -.764E-12   -.191E-13 -.208E-14 0.369E-13   0.000E+00 0.000E+00 0.000E+00   0.334E-12 0.126E-13 0.332E-12
   -.287E+02 0.739E-14 -.293E+00   0.293E+02 0.253E-14 0.539E+00   -.631E+00 0.694E-17 -.253E+00   0.791E-03 0.809E-14 0.167E-03
   0.287E+02 0.163E-13 0.293E+00   -.293E+02 -.601E-14 -.539E+00   0.631E+00 0.000E+00 0.253E+00   -.791E-03 0.493E-14 -.167E-03
   -.287E+02 -.214E-12 -.293E+00   0.293E+02 0.336E-14 0.539E+00   -.631E+00 0.694E-17 -.253E+00   0.791E-03 -.188E-13 0.167E-03
   0.287E+02 -.496E-12 0.293E+00   -.293E+02 -.518E-14 -.539E+00   0.631E+00 0.000E+00 0.253E+00   -.791E-03 -.124E-13 -.167E-03
   -.552E+02 0.454E-13 -.284E+01   0.560E+02 -.197E-14 0.298E+01   -.779E+00 0.000E+00 -.144E+00   0.310E-03 0.180E-13 0.469E-03
   0.552E+02 -.123E-12 0.284E+01   -.560E+02 0.293E-15 -.298E+01   0.779E+00 0.173E-17 0.144E+00   -.310E-03 0.183E-14 -.469E-03
   -.552E+02 0.370E-11 -.284E+01   0.560E+02 -.172E-14 0.298E+01   -.779E+00 0.000E+00 -.144E+00   0.310E-03 0.287E-15 0.469E-03
   0.552E+02 -.276E-12 0.284E+01   -.560E+02 0.556E-15 -.298E+01   0.779E+00 0.173E-17 0.144E+00   -.310E-03 -.114E-13 -.469E-03
 -----------------------------------------------------------------------------------------------
   0.830E-10 0.207E-10 0.923E-10   0.220E-12 -.405E-13 -.142E-13   0.000E+00 0.243E-16 -.555E-15   -.172E-11 -.430E-13 -.159E-11
 
 
 POSITION                                       TOTAL-FORCE (eV/Angst)
 -----------------------------------------------------------------------------------
      0.00000      0.00000      0.00000         0.000000      0.000000      0.000000
      6.02776      2.04391     -0.00055         0.000000      0.000000      0.000000
      6.11471      0.00000      4.28887         0.010813      0.000000      0.003815
      9.89835      0.00000      1.35998        -0.010813      0.000000     -0.003815
     12.14247      2.04391      4.28832         0.010813      0.000000      0.003815
      3.87059      2.04391      1.36053        -0.010813      0.000000     -0.003815
      2.21854      0.00000      1.28471         0.014763      0.000000     -0.000148
     13.79452      0.00000      4.36414        -0.014763      0.000000      0.000148
      8.24630      2.04391      1.28416         0.014763      0.000000     -0.000148
      7.76676      2.04391      4.36469        -0.014763      0.000000      0.000148
      1.97877      2.04391      2.82497         0.000000      0.000000      0.000000
      8.00653      0.00000      2.82442         0.000000      0.000000      0.000000
      4.01129      0.00000      3.04509        -0.004863      0.000000     -0.007039
     12.00177      0.00000      2.60376         0.004863      0.000000      0.007039
     10.03905      2.04391      3.04454        -0.004863      0.000000     -0.007039
      5.97401      2.04391      2.60431         0.004863      0.000000      0.007039
      4.58517      0.00000      0.02634        -0.006346      0.000000     -0.003150
     11.42789      0.00000      5.62250         0.006346      0.000000      0.003150
     10.61293      2.04391      0.02580        -0.006346      0.000000     -0.003150
      5.40013      2.04391      5.62305         0.006346      0.000000      0.003150
 -----------------------------------------------------------------------------------
    total drift:                                0.000000      0.000000      0.000000


--------------------------------------------------------------------------------------------------------



  FREE ENERGIE OF THE ION-ELECTRON SYSTEM (eV)
  ---------------------------------------------------
  free  energy   TOTEN  =       -78.935217 eV

  energy  without entropy=      -78.932481  energy(sigma->0) =      -78.934305
 
 d Force = 0.3872343E-03[ 0.203E-03, 0.572E-03]  d Energy = 0.5010347E-03-0.114E-03
 d Force =-0.2030492E+00[-0.205E+00,-0.201E+00]  d Ewald  =-0.1208889E+01 0.101E+01


--------------------------------------------------------------------------------------------------------


    POTLOK:  cpu time    0.05: real time    0.05


--------------------------------------------------------------------------------------------------------


 Conjugate gradient step on ions:
 trial-energy change:   -0.000501  1 .order   -0.000529   -0.000788   -0.000270
  (g-gl).g = 0.406E-03      g.g   = 0.337E-03  gl.gl    = 0.811E-03
 g(Force)  = 0.236E-03   g(Stress)= 0.101E-03 ortho     =-0.482E-05
 gamma     =   0.50059
 trial     =   2.35794
 opt step  =   3.58667  (harmonic =   3.58667) maximal distance =0.00534540
 next E    =   -78.935315   (d E  =  -0.00060)


--------------------------------------------------------------------------------------------------------


     LOOP+:  cpu time  103.76: real time  104.07
    4ORBIT:  cpu time    0.00: real time    0.00

 total amount of memory used by VASP on root node   111661. kBytes
========================================================================

   base      :      30000. kBytes
   nonlr-proj:       4277. kBytes
   fftplans  :       2150. kBytes
   grid      :       4525. kBytes
   one-center:        311. kBytes
   wavefun   :      70398. kBytes
 
  
  
 General timing and accounting informations for this job:
 ========================================================
  
                  Total CPU time used (sec):     1217.200
                            User time (sec):     1216.340
                          System time (sec):        0.860
                         Elapsed time (sec):     1220.890
  
                   Maximum memory used (kb):      256508.
                   Average memory used (kb):           0.
  
                          Minor page faults:        82558
                          Major page faults:            0
                 Voluntary context switches:         1632
