 vasp.5.2.12 11Nov11 complex                                                    
  
 executed on             LinuxIFC date 2014.05.30  10:21:04
 running on    4 nodes
 distr:  one band on    1 nodes,    4 groups


--------------------------------------------------------------------------------------------------------


 INCAR:
 POTCAR:    PAW_PBE Cu 22Jun2005                  
 POTCAR:    PAW_PBE Al 04Jan2001                  
 POTCAR:    PAW_PBE Cu 22Jun2005                  
   VRHFIN =Cu: d10 p1                                                           
   LEXCH  = PE                                                                  
   EATOM  =  1390.9808 eV,  102.2342 Ry                                         
                                                                                
   TITEL  = PAW_PBE Cu 22Jun2005                                                
   LULTRA =        F    use ultrasoft PP ?                                      
   IUNSCR =        1    unscreen: 0-lin 1-nonlin 2-no                           
   RPACOR =    2.000    partial core radius                                     
   POMASS =   63.546; ZVAL   =   11.000    mass and valenz                      
   RCORE  =    2.300    outmost cutoff radius                                   
   RWIGS  =    2.200; RWIGS  =    1.164    wigner-seitz radius (au A)           
   ENMAX  =  295.446; ENMIN  =  221.585 eV                                      
   ICORE  =        3    local potential                                         
   LCOR   =        T    correct aug charges                                     
   LPAW   =        T    paw PP                                                  
   EAUG   =  586.980                                                            
   DEXC   =    0.000                                                            
   RMAX   =    2.344    core radius for proj-oper                               
   RAUG   =    1.300    factor for augmentation sphere                          
   RDEP   =    2.302    radius for radial grids                                 
   RDEPT  =    1.771    core radius for aug-charge                              
                                                                                
   Atomic configuration                                                         
    9 entries                                                                   
     n  l   j            E        occ.                                          
     1  0  0.50     -8850.2468   2.0000                                         
     2  0  0.50     -1062.3498   2.0000                                         
     2  1  1.50      -916.8226   6.0000                                         
     3  0  0.50      -114.6929   2.0000                                         
     3  1  1.50       -72.1325   6.0000                                         
     3  2  2.50        -5.0394  10.0000                                         
     4  0  0.50        -4.6097   1.0000                                         
     4  1  0.50        -4.0817   0.0000                                         
     4  3  2.50        -1.3606   0.0000                                         
   Description                                                                  
     l       E           TYP  RCUT    TYP  RCUT                                 
     2     -5.0393973     23  2.200                                             
     2     10.8846608     23  2.200                                             
     0     -4.6097109     23  2.200                                             
     0      8.2520465     23  2.200                                             
     1     -2.7211652     23  2.200                                             
     1     21.7055443     23  2.200                                             
     3      2.7211652     23  2.300                                             
  local pseudopotential read in
  partial core-charges read in
  partial kinetic energy density read in
  atomic valenz-charges read in
  non local Contribution for L=           2  read in
    real space projection operators read in
  non local Contribution for L=           2  read in
    real space projection operators read in
  non local Contribution for L=           0  read in
    real space projection operators read in
  non local Contribution for L=           0  read in
    real space projection operators read in
  non local Contribution for L=           1  read in
    real space projection operators read in
  non local Contribution for L=           1  read in
    real space projection operators read in
    PAW grid and wavefunctions read in
 
   number of l-projection  operators is LMAX  =           6
   number of lm-projection operators is LMMAX =          18
 
 POTCAR:    PAW_PBE Al 04Jan2001                  
   VRHFIN =Al: s2p1                                                             
   LEXCH  = PE                                                                  
   EATOM  =    53.5387 eV,    3.9350 Ry                                         
                                                                                
   TITEL  = PAW_PBE Al 04Jan2001                                                
   LULTRA =        F    use ultrasoft PP ?                                      
   IUNSCR =        1    unscreen: 0-lin 1-nonlin 2-no                           
   RPACOR =    1.500    partial core radius                                     
   POMASS =   26.981; ZVAL   =    3.000    mass and valenz                      
   RCORE  =    1.900    outmost cutoff radius                                   
   RWIGS  =    2.650; RWIGS  =    1.402    wigner-seitz radius (au A)           
   ENMAX  =  240.300; ENMIN  =  180.225 eV                                      
   ICORE  =        2    local potential                                         
   LCOR   =        T    correct aug charges                                     
   LPAW   =        T    paw PP                                                  
   EAUG   =  291.052                                                            
   DEXC   =    0.000                                                            
   RMAX   =    1.939    core radius for proj-oper                               
   RAUG   =    1.300    factor for augmentation sphere                          
   RDEP   =    1.966    radius for radial grids                                 
   RDEPT  =    1.856    core radius for aug-charge                              
                                                                                
   Atomic configuration                                                         
    6 entries                                                                   
     n  l   j            E        occ.                                          
     1  0  0.50     -1511.1048   2.0000                                         
     2  0  0.50      -108.1629   2.0000                                         
     2  1  1.50       -69.6402   6.0000                                         
     3  0  0.50        -7.7528   2.0000                                         
     3  1  1.50        -2.7121   1.0000                                         
     3  2  2.50        -2.7212   0.0000                                         
   Description                                                                  
     l       E           TYP  RCUT    TYP  RCUT                                 
     0     -7.7528455     23  1.900                                             
     0     -3.3096929     23  1.900                                             
     1     -2.7120682     23  1.900                                             
     1     13.6058260     23  1.900                                             
     2     -2.7211652      7  1.900                                             
  local pseudopotential read in
  partial core-charges read in
  partial kinetic energy density read in
  atomic valenz-charges read in
  non local Contribution for L=           0  read in
    real space projection operators read in
  non local Contribution for L=           0  read in
    real space projection operators read in
  non local Contribution for L=           1  read in
    real space projection operators read in
  non local Contribution for L=           1  read in
    real space projection operators read in
    PAW grid and wavefunctions read in
 
   number of l-projection  operators is LMAX  =           4
   number of lm-projection operators is LMMAX =           8
 
 Optimization of the real space projectors (new method)

 maximal supplied QI-value         = 16.25
 optimisation between [QCUT,QGAM] = [  8.78, 17.55] = [ 21.57, 86.27] Ry 
 Optimized for a Real-space Cutoff    1.61 Angstroem

   l    n(q)    QCUT    max X(q) W(low)/X(q) W(high)/X(q)  e(spline) 
   2      7     8.776     4.610    0.19E-03    0.29E-03    0.29E-06
   2      7     8.776     8.522    0.28E-03    0.56E-03    0.43E-06
   0      8     8.776    51.609    0.51E-04    0.19E-03    0.66E-07
   0      8     8.776    27.747    0.45E-04    0.18E-03    0.64E-07
   1      8     8.776    20.408    0.41E-03    0.31E-03    0.23E-06
   1      8     8.776    13.425    0.36E-03    0.28E-03    0.21E-06
 Optimization of the real space projectors (new method)

 maximal supplied QI-value         = 19.84
 optimisation between [QCUT,QGAM] = [  8.73, 17.46] = [ 21.34, 85.38] Ry 
 Optimized for a Real-space Cutoff    1.43 Angstroem

   l    n(q)    QCUT    max X(q) W(low)/X(q) W(high)/X(q)  e(spline) 
   0      7     8.731   176.870    0.24E-03    0.42E-04    0.12E-06
   0      7     8.731   105.762    0.23E-03    0.40E-04    0.11E-06
   1      7     8.731    55.370    0.23E-03    0.67E-03    0.12E-06
   1      7     8.731    20.208    0.21E-03    0.61E-03    0.12E-06
  PAW_PBE Cu 22Jun2005                  :
 energy of atom  1       EATOM=-1390.9808
 kinetic energy error for atom=    0.0452 (will be added to EATOM!!)
  PAW_PBE Al 04Jan2001                  :
 energy of atom  2       EATOM=  -53.5387
 kinetic energy error for atom=    0.0012 (will be added to EATOM!!)
 
 
 POSCAR: XYZ: Cu4Al8                             
  positions in direct lattice
  velocities in cartesian coordinates
 exchange correlation table for  LEXCH =        8
   RHO(1)=    0.500       N(1)  =     2000
   RHO(2)=  100.500       N(2)  =     4000
 


--------------------------------------------------------------------------------------------------------


 ion  position               nearest neighbor table
   1  0.000  0.000  0.250-   2 2.43   2 2.43   6 2.58   7 2.58   8 2.58   9 2.58  10 2.58  11 2.58
                            12 2.58   5 2.58
   2  0.000  0.000  0.750-   1 2.43   1 2.43   6 2.58   7 2.58   8 2.58   9 2.58  10 2.58  11 2.58
                            12 2.58   5 2.58
   3  0.500  0.500  0.750-   4 2.43   4 2.43   6 2.58   7 2.58   8 2.58   9 2.58  10 2.58  11 2.58
                            12 2.58   5 2.58
   4  0.500  0.500  0.250-   3 2.43   3 2.43   6 2.58   7 2.58   8 2.58   9 2.58  10 2.58  11 2.58
                            12 2.58   5 2.58
   5  0.158  0.658  0.000-   1 2.58   2 2.58   3 2.58   4 2.58   7 2.70  12 2.89  12 2.89   9 3.09
                             9 3.09  10 3.09  10 3.09   6 3.22   8 3.22   6 3.22   8 3.22
   6  0.342  0.158  0.000-   1 2.58   2 2.58   3 2.58   4 2.58   8 2.70   9 2.89   9 2.89  12 3.09
                            11 3.09  11 3.09  12 3.09   7 3.22   5 3.22   5 3.22   7 3.22
   7  0.842  0.342  0.000-   1 2.58   2 2.58   3 2.58   4 2.58   5 2.70  11 2.89  11 2.89   9 3.09
                             9 3.09  10 3.09  10 3.09   6 3.22   8 3.22   8 3.22   6 3.22
   8  0.658  0.842  0.000-   1 2.58   2 2.58   3 2.58   4 2.58   6 2.70  10 2.89  10 2.89  12 3.09
                            11 3.09  11 3.09  12 3.09   5 3.22   7 3.22   7 3.22   5 3.22
   9  0.158  0.342  0.500-   1 2.58   2 2.58   3 2.58   4 2.58  10 2.70   6 2.89   6 2.89   5 3.09
                             5 3.09   7 3.09   7 3.09  12 3.22  11 3.22  12 3.22  11 3.22
  10  0.842  0.658  0.500-   1 2.58   2 2.58   3 2.58   4 2.58   9 2.70   8 2.89   8 2.89   7 3.09
                             5 3.09   7 3.09   5 3.09  12 3.22  11 3.22  11 3.22  12 3.22
  11  0.658  0.158  0.500-   1 2.58   2 2.58   3 2.58   4 2.58  12 2.70   7 2.89   7 2.89   6 3.09
                             6 3.09   8 3.09   8 3.09   9 3.22  10 3.22  10 3.22   9 3.22
  12  0.342  0.842  0.500-   1 2.58   2 2.58   3 2.58   4 2.58  11 2.70   5 2.89   5 2.89   6 3.09
                             8 3.09   6 3.09   8 3.09   9 3.22  10 3.22   9 3.22  10 3.22
 
  LATTYP: Found a simple tetragonal cell.
 ALAT       =     6.0448351987
 C/A-ratio  =     0.8024085510
  
  Lattice vectors:
  
 A1 = (   6.0448351987,   0.0000000000,   0.0000000000)
 A2 = (   0.0000000000,   6.0448351987,   0.0000000000)
 A3 = (   0.0000000000,   0.0000000000,   4.8504274529)
 Subroutine PRICEL returns following result:
 
  LATTYP: Found a body centered tetragonal cell.
 ALAT       =     6.0448351987
 C/A-ratio  =     0.8024085510
  
  Lattice vectors:
  
 A1 = (   3.0224175993,  -3.0224175993,   2.4252137265)
 A2 = (  -3.0224175993,   3.0224175993,   2.4252137265)
 A3 = (  -3.0224175993,  -3.0224175993,  -2.4252137265)
 
   2 primitive cells build up your supercell.
 

Analysis of symmetry for initial positions (statically):

 Routine SETGRP: Setting up the symmetry group for a 
 simple tetragonal supercell.


 Subroutine GETGRP returns: Found 16 space group operations
 (whereof  8 operations were pure point group operations)
 out of a pool of 16 trial point group operations.


The static configuration has the point symmetry C_4h.
 The point group associated with its full space group is D_4h.

Analysis of symmetry for dynamics (positions and initial velocities):

 Subroutine DYNSYM returns: Found 16 space group operations
 (whereof  8 operations were pure point group operations)
 out of a pool of 16 trial space group operations
 (whereof  8 operations were pure point group operations)
 and found also     2 'primitive' translations


The dynamic configuration has the point symmetry C_4h.
 The point group associated with its full space group is D_4h.
 
 
 KPOINTS: Automatic mesh                          

Automatic generation of k-mesh.
 
 Subroutine IBZKPT returns following result:
 ===========================================
 
 Found     50 irreducible k-points:
 
 Following reciprocal coordinates:
            Coordinates               Weight
  0.000000  0.000000  0.000000      1.000000
  0.142857  0.000000  0.000000      4.000000
  0.285714  0.000000  0.000000      4.000000
  0.428571  0.000000  0.000000      4.000000
  0.142857  0.142857  0.000000      4.000000
  0.285714  0.142857  0.000000      8.000000
  0.428571  0.142857  0.000000      8.000000
  0.285714  0.285714  0.000000      4.000000
  0.428571  0.285714  0.000000      8.000000
  0.428571  0.428571  0.000000      4.000000
  0.000000  0.000000  0.111111      2.000000
  0.142857  0.000000  0.111111      8.000000
  0.285714  0.000000  0.111111      8.000000
  0.428571  0.000000  0.111111      8.000000
  0.142857  0.142857  0.111111      8.000000
  0.285714  0.142857  0.111111     16.000000
  0.428571  0.142857  0.111111     16.000000
  0.285714  0.285714  0.111111      8.000000
  0.428571  0.285714  0.111111     16.000000
  0.428571  0.428571  0.111111      8.000000
  0.000000  0.000000  0.222222      2.000000
  0.142857  0.000000  0.222222      8.000000
  0.285714  0.000000  0.222222      8.000000
  0.428571  0.000000  0.222222      8.000000
  0.142857  0.142857  0.222222      8.000000
  0.285714  0.142857  0.222222     16.000000
  0.428571  0.142857  0.222222     16.000000
  0.285714  0.285714  0.222222      8.000000
  0.428571  0.285714  0.222222     16.000000
  0.428571  0.428571  0.222222      8.000000
  0.000000  0.000000  0.333333      2.000000
  0.142857  0.000000  0.333333      8.000000
  0.285714  0.000000  0.333333      8.000000
  0.428571  0.000000  0.333333      8.000000
  0.142857  0.142857  0.333333      8.000000
  0.285714  0.142857  0.333333     16.000000
  0.428571  0.142857  0.333333     16.000000
  0.285714  0.285714  0.333333      8.000000
  0.428571  0.285714  0.333333     16.000000
  0.428571  0.428571  0.333333      8.000000
  0.000000  0.000000  0.444444      2.000000
  0.142857  0.000000  0.444444      8.000000
  0.285714  0.000000  0.444444      8.000000
  0.428571  0.000000  0.444444      8.000000
  0.142857  0.142857  0.444444      8.000000
  0.285714  0.142857  0.444444     16.000000
  0.428571  0.142857  0.444444     16.000000
  0.285714  0.285714  0.444444      8.000000
  0.428571  0.285714  0.444444     16.000000
  0.428571  0.428571  0.444444      8.000000
 
 Following cartesian coordinates:
            Coordinates               Weight
  0.000000  0.000000  0.000000      1.000000
  0.023633  0.000000  0.000000      4.000000
  0.047266  0.000000  0.000000      4.000000
  0.070899  0.000000  0.000000      4.000000
  0.023633  0.023633  0.000000      4.000000
  0.047266  0.023633  0.000000      8.000000
  0.070899  0.023633  0.000000      8.000000
  0.047266  0.047266  0.000000      4.000000
  0.070899  0.047266  0.000000      8.000000
  0.070899  0.070899  0.000000      4.000000
  0.000000  0.000000  0.022907      2.000000
  0.023633  0.000000  0.022907      8.000000
  0.047266  0.000000  0.022907      8.000000
  0.070899  0.000000  0.022907      8.000000
  0.023633  0.023633  0.022907      8.000000
  0.047266  0.023633  0.022907     16.000000
  0.070899  0.023633  0.022907     16.000000
  0.047266  0.047266  0.022907      8.000000
  0.070899  0.047266  0.022907     16.000000
  0.070899  0.070899  0.022907      8.000000
  0.000000  0.000000  0.045815      2.000000
  0.023633  0.000000  0.045815      8.000000
  0.047266  0.000000  0.045815      8.000000
  0.070899  0.000000  0.045815      8.000000
  0.023633  0.023633  0.045815      8.000000
  0.047266  0.023633  0.045815     16.000000
  0.070899  0.023633  0.045815     16.000000
  0.047266  0.047266  0.045815      8.000000
  0.070899  0.047266  0.045815     16.000000
  0.070899  0.070899  0.045815      8.000000
  0.000000  0.000000  0.068722      2.000000
  0.023633  0.000000  0.068722      8.000000
  0.047266  0.000000  0.068722      8.000000
  0.070899  0.000000  0.068722      8.000000
  0.023633  0.023633  0.068722      8.000000
  0.047266  0.023633  0.068722     16.000000
  0.070899  0.023633  0.068722     16.000000
  0.047266  0.047266  0.068722      8.000000
  0.070899  0.047266  0.068722     16.000000
  0.070899  0.070899  0.068722      8.000000
  0.000000  0.000000  0.091630      2.000000
  0.023633  0.000000  0.091630      8.000000
  0.047266  0.000000  0.091630      8.000000
  0.070899  0.000000  0.091630      8.000000
  0.023633  0.023633  0.091630      8.000000
  0.047266  0.023633  0.091630     16.000000
  0.070899  0.023633  0.091630     16.000000
  0.047266  0.047266  0.091630      8.000000
  0.070899  0.047266  0.091630     16.000000
  0.070899  0.070899  0.091630      8.000000
 


--------------------------------------------------------------------------------------------------------




 Dimension of arrays:
   k-points           NKPTS =     50   k-points in BZ     NKDIM =     50   number of bands    NBANDS=     44
   number of dos      NEDOS =    301   number of ions     NIONS =     12
   non local maximal  LDIM  =      6   non local SUM 2l+1 LMDIM =     18
   total plane-waves  NPLWV =  15680
   max r-space proj   IRMAX =   1586   max aug-charges    IRDMAX=   3642
   dimension x,y,z NGX =    28 NGY =   28 NGZ =   20
   dimension x,y,z NGXF=    56 NGYF=   56 NGZF=   40
   support grid    NGXF=    56 NGYF=   56 NGZF=   40
   ions per type =               4   8
 NGX,Y,Z   is equivalent  to a cutoff of   7.70,  7.70,  6.85 a.u.
 NGXF,Y,Z  is equivalent  to a cutoff of  15.40, 15.40, 13.71 a.u.


 I would recommend the setting:
   dimension x,y,z NGX =    25 NGY =   25 NGZ =   20
 SYSTEM =  Al8Cu4                                  
 POSCAR =  XYZ: Cu4Al8                             

 Startparameter for this run:
   NWRITE =      2    write-flag & timer
   PREC   = normal    normal or accurate (medium, high low for compatibility)
   ISTART =      0    job   : 0-new  1-cont  2-samecut
   ICHARG =      2    charge: 1-file 2-atom 10-const
   ISPIN  =      1    spin polarized calculation?
   LNONCOLLINEAR =      F non collinear calculations
   LSORBIT =      F    spin-orbit coupling
   INIWAV =      1    electr: 0-lowe 1-rand  2-diag
   LASPH  =      F    aspherical Exc in radial PAW
   METAGGA=      F    non-selfconsistent MetaGGA calc.

 Electronic Relaxation 1
   ENCUT  =  295.4 eV  21.71 Ry    4.66 a.u.   8.47  8.47  6.80*2*pi/ulx,y,z
   ENINI  =  295.4     initial cutoff
   ENAUG  =  587.0 eV  augmentation charge cutoff
   NELM   =     40;   NELMIN=  2; NELMDL=  0     # of ELM steps 
   EDIFF  = 0.1E-05   stopping-criterion for ELM
   LREAL  =      T    real-space projection
   NLSPLINE    = F    spline interpolate recip. space projectors
   LCOMPAT=      F    compatible to vasp.4.4
   GGA_COMPAT  = T    GGA compatible to vasp.4.4-vasp.4.6
   LMAXPAW     = -100 max onsite density
   LMAXMIX     =    2 max onsite mixed and CHGCAR
   VOSKOWN=      0    Vosko Wilk Nusair interpolation
   ROPT   =   -0.00050  -0.00050
 Ionic relaxation
   EDIFFG = 0.1E-04   stopping-criterion for IOM
   NSW    =     10    number of steps for IOM
   NBLOCK =      1;   KBLOCK =     10    inner block; outer block 
   IBRION =      2    ionic relax: 0-MD 1-quasi-New 2-CG
   NFREE  =      1    steps in history (QN), initial steepest desc. (CG)
   ISIF   =      3    stress and relaxation
   IWAVPR =     11    prediction:  0-non 1-charg 2-wave 3-comb
   ISYM   =      2    0-nonsym 1-usesym 2-fastsym
   LCORR  =      T    Harris-Foulkes like correction to forces

   POTIM  = 0.2500    time-step for ionic-motion
   TEIN   =    0.0    initial temperature
   TEBEG  =    0.0;   TEEND  =   0.0 temperature during run
   SMASS  =  -3.00    Nose mass-parameter (am)
   estimated Nose-frequenzy (Omega)   =  0.10E-29 period in steps =****** mass=  -0.835E-27a.u.
   SCALEE = 1.0000    scale energy and forces
   NPACO  =    256;   APACO  = 16.0  distance and # of slots for P.C.
   PSTRESS=    0.0 pullay stress

  Mass of Ions in am
   POMASS =  63.55 26.98
  Ionic Valenz
   ZVAL   =  11.00  3.00
  Atomic Wigner-Seitz radii
   RWIGS  =  -1.00 -1.00
  virtual crystal weights 
   VCA    =   1.00  1.00
   NELECT =      68.0000    total number of electrons
   NUPDOWN=      -1.0000    fix difference up-down

 DOS related values:
   EMIN   =  10.00;   EMAX   =-10.00  energy-range for DOS
   EFERMI =   0.00
   ISMEAR =     1;   SIGMA  =   0.20  broadening in eV -4-tet -1-fermi 0-gaus

 Electronic relaxation 2 (details)
   IALGO  =     68    algorithm
   LDIAG  =      T    sub-space diagonalisation (order eigenvalues)
   LSUBROT=      T    optimize rotation matrix (better conditioning)
   TURBO    =      0    0=normal 1=particle mesh
   IRESTART =      0    0=no restart 2=restart with 2 vectors
   NREBOOT  =      0    no. of reboots
   NMIN     =      0    reboot dimension
   EREF     =   0.00    reference energy to select bands
   IMIX   =      4    mixing-type and parameters
     AMIX     =   0.40;   BMIX     =  1.00
     AMIX_MAG =   1.60;   BMIX_MAG =  1.00
     AMIN     =   0.10
     WC   =   100.;   INIMIX=   1;  MIXPRE=   1

 Intra band minimization:
   WEIMIN = 0.0010     energy-eigenvalue tresh-hold
   EBREAK =  0.57E-08  absolut break condition
   DEPER  =   0.30     relativ break condition  

   TIME   =   0.40     timestep for ELM

  volume/ion in A,a.u.               =      14.77        99.67
  Fermi-wavevector in a.u.,A,eV,Ry     =   1.189583  2.247986 19.253716  1.415108
  Thomas-Fermi vector in A             =   2.325687
 
 Write flags
   LWAVE  =      F    write WAVECAR
   LCHARG =      F    write CHGCAR
   LVTOT  =      F    write LOCPOT, total local potential
   LVHAR  =      F    write LOCPOT, Hartree potential only
   LELF   =      F    write electronic localiz. function (ELF)
   LORBIT =      0    0 simple, 1 ext, 2 COOP (PROOUT)


 Dipole corrections
   LMONO  =      F    monopole corrections only (constant potential shift)
   LDIPOL =      F    correct potential (dipole corrections)
   IDIPOL =      0    1-x, 2-y, 3-z, 4-all directions 
   EPSILON=  1.0000000 bulk dielectric constant

 Exchange correlation treatment:
   GGA     =    --    GGA type
   LEXCH   =     8    internal setting for exchange type
   VOSKOWN=      0    Vosko Wilk Nusair interpolation
   LHFCALC =     F    Hartree Fock is set to
   LHFONE  =     F    Hartree Fock one center treatment
   AEXX    =    0.0000 exact exchange contribution

 Linear response parameters
   LEPSILON=     F    determine dielectric tensor
   LRPA    =     F    only Hartree local field effects (RPA)
   LNABLA  =     F    use nabla operator in PAW spheres
   LVEL    =     F    velocity operator in full k-point grid
   LINTERFAST=   F  fast interpolation
   KINTER  =     0    interpolate to denser k-point grid
   CSHIFT  =0.1000    complex shift for real part using Kramers Kronig
   OMEGAMAX=  -1.0    maximum frequency
   RTIME   =    0.100 relaxation time in fs

 Orbital magnetization related:
   ORBITALMAG=     F  switch on orbital magnetization
   LCHIMAG   =     F  perturbation theory with respect to B field
   DQ        =  0.001000  dq finite difference perturbation B field



--------------------------------------------------------------------------------------------------------


 conjugate gradient relaxation of ions
 charge density and potential will be updated during run
 non-spin polarized calculation
 RMM-DIIS sequential band-by-band and
  variant of blocked Davidson during initial phase
 perform sub-space diagonalisation
    before iterative eigenvector-optimisation
 modified Broyden-mixing scheme, WC =      100.0
 initial mixing is a Kerker type mixing with AMIX =  0.4000 and BMIX =      1.0000
 Hartree-type preconditioning will be used
 using additional bands           10
 real space projection scheme for non local part
 use partial core corrections
 calculate Harris-corrections to forces 
   (improved forces if not selfconsistent)
 use gradient corrections 
 use of overlap-Matrix (Vanderbilt PP)
 Methfessel and Paxton  Order N= 1 SIGMA  =   0.20


--------------------------------------------------------------------------------------------------------


  energy-cutoff  :      295.45
  volume of cell :      177.23
      direct lattice vectors                 reciprocal lattice vectors
     6.044835199  0.000000000  0.000000000     0.165430482  0.000000000  0.000000000
     0.000000000  6.044835199  0.000000000     0.000000000  0.165430482  0.000000000
     0.000000000  0.000000000  4.850427453     0.000000000  0.000000000  0.206167397

  length of vectors
     6.044835199  6.044835199  4.850427453     0.165430482  0.165430482  0.206167397


 
 k-points in units of 2pi/SCALE and weight: Automatic mesh                          
   0.00000000  0.00000000  0.00000000       0.002
   0.02363293  0.00000000  0.00000000       0.009
   0.04726585  0.00000000  0.00000000       0.009
   0.07089878  0.00000000  0.00000000       0.009
   0.02363293  0.02363293  0.00000000       0.009
   0.04726585  0.02363293  0.00000000       0.018
   0.07089878  0.02363293  0.00000000       0.018
   0.04726585  0.04726585  0.00000000       0.009
   0.07089878  0.04726585  0.00000000       0.018
   0.07089878  0.07089878  0.00000000       0.009
   0.00000000  0.00000000  0.02290749       0.005
   0.02363293  0.00000000  0.02290749       0.018
   0.04726585  0.00000000  0.02290749       0.018
   0.07089878  0.00000000  0.02290749       0.018
   0.02363293  0.02363293  0.02290749       0.018
   0.04726585  0.02363293  0.02290749       0.036
   0.07089878  0.02363293  0.02290749       0.036
   0.04726585  0.04726585  0.02290749       0.018
   0.07089878  0.04726585  0.02290749       0.036
   0.07089878  0.07089878  0.02290749       0.018
   0.00000000  0.00000000  0.04581498       0.005
   0.02363293  0.00000000  0.04581498       0.018
   0.04726585  0.00000000  0.04581498       0.018
   0.07089878  0.00000000  0.04581498       0.018
   0.02363293  0.02363293  0.04581498       0.018
   0.04726585  0.02363293  0.04581498       0.036
   0.07089878  0.02363293  0.04581498       0.036
   0.04726585  0.04726585  0.04581498       0.018
   0.07089878  0.04726585  0.04581498       0.036
   0.07089878  0.07089878  0.04581498       0.018
   0.00000000  0.00000000  0.06872247       0.005
   0.02363293  0.00000000  0.06872247       0.018
   0.04726585  0.00000000  0.06872247       0.018
   0.07089878  0.00000000  0.06872247       0.018
   0.02363293  0.02363293  0.06872247       0.018
   0.04726585  0.02363293  0.06872247       0.036
   0.07089878  0.02363293  0.06872247       0.036
   0.04726585  0.04726585  0.06872247       0.018
   0.07089878  0.04726585  0.06872247       0.036
   0.07089878  0.07089878  0.06872247       0.018
   0.00000000  0.00000000  0.09162995       0.005
   0.02363293  0.00000000  0.09162995       0.018
   0.04726585  0.00000000  0.09162995       0.018
   0.07089878  0.00000000  0.09162995       0.018
   0.02363293  0.02363293  0.09162995       0.018
   0.04726585  0.02363293  0.09162995       0.036
   0.07089878  0.02363293  0.09162995       0.036
   0.04726585  0.04726585  0.09162995       0.018
   0.07089878  0.04726585  0.09162995       0.036
   0.07089878  0.07089878  0.09162995       0.018
 
 k-points in reciprocal lattice and weights: Automatic mesh                          
   0.00000000  0.00000000  0.00000000       0.002
   0.14285714  0.00000000  0.00000000       0.009
   0.28571429  0.00000000  0.00000000       0.009
   0.42857143  0.00000000  0.00000000       0.009
   0.14285714  0.14285714  0.00000000       0.009
   0.28571429  0.14285714  0.00000000       0.018
   0.42857143  0.14285714  0.00000000       0.018
   0.28571429  0.28571429  0.00000000       0.009
   0.42857143  0.28571429  0.00000000       0.018
   0.42857143  0.42857143  0.00000000       0.009
   0.00000000  0.00000000  0.11111111       0.005
   0.14285714  0.00000000  0.11111111       0.018
   0.28571429  0.00000000  0.11111111       0.018
   0.42857143  0.00000000  0.11111111       0.018
   0.14285714  0.14285714  0.11111111       0.018
   0.28571429  0.14285714  0.11111111       0.036
   0.42857143  0.14285714  0.11111111       0.036
   0.28571429  0.28571429  0.11111111       0.018
   0.42857143  0.28571429  0.11111111       0.036
   0.42857143  0.42857143  0.11111111       0.018
   0.00000000  0.00000000  0.22222222       0.005
   0.14285714  0.00000000  0.22222222       0.018
   0.28571429  0.00000000  0.22222222       0.018
   0.42857143  0.00000000  0.22222222       0.018
   0.14285714  0.14285714  0.22222222       0.018
   0.28571429  0.14285714  0.22222222       0.036
   0.42857143  0.14285714  0.22222222       0.036
   0.28571429  0.28571429  0.22222222       0.018
   0.42857143  0.28571429  0.22222222       0.036
   0.42857143  0.42857143  0.22222222       0.018
   0.00000000  0.00000000  0.33333333       0.005
   0.14285714  0.00000000  0.33333333       0.018
   0.28571429  0.00000000  0.33333333       0.018
   0.42857143  0.00000000  0.33333333       0.018
   0.14285714  0.14285714  0.33333333       0.018
   0.28571429  0.14285714  0.33333333       0.036
   0.42857143  0.14285714  0.33333333       0.036
   0.28571429  0.28571429  0.33333333       0.018
   0.42857143  0.28571429  0.33333333       0.036
   0.42857143  0.42857143  0.33333333       0.018
   0.00000000  0.00000000  0.44444444       0.005
   0.14285714  0.00000000  0.44444444       0.018
   0.28571429  0.00000000  0.44444444       0.018
   0.42857143  0.00000000  0.44444444       0.018
   0.14285714  0.14285714  0.44444444       0.018
   0.28571429  0.14285714  0.44444444       0.036
   0.42857143  0.14285714  0.44444444       0.036
   0.28571429  0.28571429  0.44444444       0.018
   0.42857143  0.28571429  0.44444444       0.036
   0.42857143  0.42857143  0.44444444       0.018
 
 position of ions in fractional coordinates (direct lattice) 
   0.00000000  0.00000000  0.25000000
   0.00000000  0.00000000  0.75000000
   0.50000000  0.50000000  0.75000000
   0.50000000  0.50000000  0.25000000
   0.15798750  0.65798750  0.00000000
   0.34201250  0.15798750  0.00000000
   0.84201250  0.34201250  0.00000000
   0.65798750  0.84201250  0.00000000
   0.15798750  0.34201250  0.50000000
   0.84201250  0.65798750  0.50000000
   0.65798750  0.15798750  0.50000000
   0.34201250  0.84201250  0.50000000
 
 position of ions in cartesian coordinates  (Angst):
   0.00000000  0.00000000  1.21260686
   0.00000000  0.00000000  3.63782059
   3.02241760  3.02241760  3.63782059
   3.02241760  3.02241760  1.21260686
   0.95500838  3.97742598  0.00000000
   2.06740922  0.95500838  0.00000000
   5.08982682  2.06740922  0.00000000
   3.97742598  5.08982682  0.00000000
   0.95500838  2.06740922  2.42521373
   5.08982682  3.97742598  2.42521373
   3.97742598  0.95500838  2.42521373
   2.06740922  5.08982682  2.42521373
 


--------------------------------------------------------------------------------------------------------


 k-point  1 :  0.00000.00000.0000  plane waves:    2025
 k-point  2 :  0.14290.00000.0000  plane waves:    2021
 k-point  3 :  0.28570.00000.0000  plane waves:    2053
 k-point  4 :  0.42860.00000.0000  plane waves:    2047
 k-point  5 :  0.14290.14290.0000  plane waves:    2032
 k-point  6 :  0.28570.14290.0000  plane waves:    2047
 k-point  7 :  0.42860.14290.0000  plane waves:    2045
 k-point  8 :  0.28570.28570.0000  plane waves:    2040
 k-point  9 :  0.42860.28570.0000  plane waves:    2041
 k-point 10 :  0.42860.42860.0000  plane waves:    2050
 k-point 11 :  0.00000.00000.1111  plane waves:    2033
 k-point 12 :  0.14290.00000.1111  plane waves:    2035
 k-point 13 :  0.28570.00000.1111  plane waves:    2049
 k-point 14 :  0.42860.00000.1111  plane waves:    2042
 k-point 15 :  0.14290.14290.1111  plane waves:    2039
 k-point 16 :  0.28570.14290.1111  plane waves:    2050
 k-point 17 :  0.42860.14290.1111  plane waves:    2045
 k-point 18 :  0.28570.28570.1111  plane waves:    2040
 k-point 19 :  0.42860.28570.1111  plane waves:    2040
 k-point 20 :  0.42860.42860.1111  plane waves:    2028
 k-point 21 :  0.00000.00000.2222  plane waves:    2030
 k-point 22 :  0.14290.00000.2222  plane waves:    2047
 k-point 23 :  0.28570.00000.2222  plane waves:    2055
 k-point 24 :  0.42860.00000.2222  plane waves:    2041
 k-point 25 :  0.14290.14290.2222  plane waves:    2048
 k-point 26 :  0.28570.14290.2222  plane waves:    2050
 k-point 27 :  0.42860.14290.2222  plane waves:    2038
 k-point 28 :  0.28570.28570.2222  plane waves:    2035
 k-point 29 :  0.42860.28570.2222  plane waves:    2037
 k-point 30 :  0.42860.42860.2222  plane waves:    2030
 k-point 31 :  0.00000.00000.3333  plane waves:    2046
 k-point 32 :  0.14290.00000.3333  plane waves:    2063
 k-point 33 :  0.28570.00000.3333  plane waves:    2053
 k-point 34 :  0.42860.00000.3333  plane waves:    2047
 k-point 35 :  0.14290.14290.3333  plane waves:    2052
 k-point 36 :  0.28570.14290.3333  plane waves:    2046
 k-point 37 :  0.42860.14290.3333  plane waves:    2038
 k-point 38 :  0.28570.28570.3333  plane waves:    2047
 k-point 39 :  0.42860.28570.3333  plane waves:    2036
 k-point 40 :  0.42860.42860.3333  plane waves:    2039
 k-point 41 :  0.00000.00000.4444  plane waves:    2066
 k-point 42 :  0.14290.00000.4444  plane waves:    2047
 k-point 43 :  0.28570.00000.4444  plane waves:    2050
 k-point 44 :  0.42860.00000.4444  plane waves:    2056
 k-point 45 :  0.14290.14290.4444  plane waves:    2058
 k-point 46 :  0.28570.14290.4444  plane waves:    2049
 k-point 47 :  0.42860.14290.4444  plane waves:    2049
 k-point 48 :  0.28570.28570.4444  plane waves:    2043
 k-point 49 :  0.42860.28570.4444  plane waves:    2039
 k-point 50 :  0.42860.42860.4444  plane waves:    2034

 maximum and minimum number of plane-waves per node :      2066     2021

 maximum number of plane-waves:      2066
 maximum index in each direction: 
   IXMAX=    8   IYMAX=    8   IZMAX=    6
   IXMIN=   -8   IYMIN=   -8   IZMIN=   -7

 WARNING: aliasing errors must be expected set NGX to  34 to avoid them
 WARNING: aliasing errors must be expected set NGY to  34 to avoid them
 WARNING: aliasing errors must be expected set NGZ to  28 to avoid them
 aliasing errors are usually negligible using standard VASP settings
 and one can safely disregard these warnings

 serial   3D FFT for wavefunctions
 parallel 3D FFT for charge:
    minimum data exchange during FFTs selected (reduces bandwidth)


 total amount of memory used by VASP on root node    55051. kBytes
========================================================================

   base      :      30000. kBytes
   nonlr-proj:       1844. kBytes
   fftplans  :       1168. kBytes
   grid      :       2458. kBytes
   one-center:        186. kBytes
   wavefun   :      19395. kBytes
 
 Broyden mixing: mesh for mixing (old mesh)
   NGX = 17   NGY = 17   NGZ = 13
  (NGX  = 56   NGY  = 56   NGZ  = 40)
  gives a total of   3757 points

 initial charge density was supplied:
 charge density of overlapping atoms calculated
 number of electron      68.0000000 magnetization 
 keeping initial charge density in first step


--------------------------------------------------------------------------------------------------------


 Maximum index for non-local projection operator         1493
 Maximum index for augmentation-charges          842 (set IRDMAX)


--------------------------------------------------------------------------------------------------------


 First call to EWALD:  gamma=   0.316
 Maximum number of real-space cells 3x 3x 3
 Maximum number of reciprocal cells 3x 3x 2

    FEWALD:  cpu time    0.00: real time    0.00


----------------------------------------- Iteration    1(   1)  ---------------------------------------


    POTLOK:  cpu time    0.02: real time    0.02
    SETDIJ:  cpu time    0.01: real time    0.01
     EDDAV:  cpu time    3.29: real time    3.31
       DOS:  cpu time    0.00: real time    0.00
    --------------------------------------------
      LOOP:  cpu time    3.33: real time    3.35

 eigenvalue-minimisations  :  4400
 total energy-change (2. order) : 0.3657642E+03  (-0.1832790E+04)
 number of electron      68.0000000 magnetization 
 augmentation part       68.0000000 magnetization 

 Free energy of the ion-electron system (eV)
  ---------------------------------------------------
  alpha Z        PSCENC =        98.59624567
  Ewald energy   TEWEN  =     -3722.60750191
  -1/2 Hartree   DENC   =     -2597.62025708
  -exchange  EXHF       =         0.00000000
  -V(xc)+E(xc)   XCENC  =       -25.63488919
  PAW double counting   =      5442.42789652    -5610.15883456
  entropy T*S    EENTRO =        -0.00149865
  eigenvalues    EBANDS =       788.72028108
  atomic energy  EATOM  =      5992.04272498
  ---------------------------------------------------
  free energy    TOTEN  =       365.76416686 eV

  energy without entropy =      365.76566551  energy(sigma->0) =      365.76466641


--------------------------------------------------------------------------------------------------------




----------------------------------------- Iteration    1(   2)  ---------------------------------------


     EDDAV:  cpu time    3.29: real time    3.30
       DOS:  cpu time    0.00: real time    0.00
    --------------------------------------------
      LOOP:  cpu time    3.29: real time    3.31

 eigenvalue-minimisations  :  4400
 total energy-change (2. order) :-0.3936074E+03  (-0.3790513E+03)
 number of electron      68.0000000 magnetization 
 augmentation part       68.0000000 magnetization 

 Free energy of the ion-electron system (eV)
  ---------------------------------------------------
  alpha Z        PSCENC =        98.59624567
  Ewald energy   TEWEN  =     -3722.60750191
  -1/2 Hartree   DENC   =     -2597.62025708
  -exchange  EXHF       =         0.00000000
  -V(xc)+E(xc)   XCENC  =       -25.63488919
  PAW double counting   =      5442.42789652    -5610.15883456
  entropy T*S    EENTRO =         0.00433434
  eigenvalues    EBANDS =       395.10701109
  atomic energy  EATOM  =      5992.04272498
  ---------------------------------------------------
  free energy    TOTEN  =       -27.84327014 eV

  energy without entropy =      -27.84760449  energy(sigma->0) =      -27.84471492


--------------------------------------------------------------------------------------------------------




----------------------------------------- Iteration    1(   3)  ---------------------------------------


     EDDAV:  cpu time    4.11: real time    4.12
       DOS:  cpu time    0.00: real time    0.00
    --------------------------------------------
      LOOP:  cpu time    4.11: real time    4.13

 eigenvalue-minimisations  :  5768
 total energy-change (2. order) :-0.2737009E+02  (-0.2587727E+02)
 number of electron      68.0000000 magnetization 
 augmentation part       68.0000000 magnetization 

 Free energy of the ion-electron system (eV)
  ---------------------------------------------------
  alpha Z        PSCENC =        98.59624567
  Ewald energy   TEWEN  =     -3722.60750191
  -1/2 Hartree   DENC   =     -2597.62025708
  -exchange  EXHF       =         0.00000000
  -V(xc)+E(xc)   XCENC  =       -25.63488919
  PAW double counting   =      5442.42789652    -5610.15883456
  entropy T*S    EENTRO =         0.00742210
  eigenvalues    EBANDS =       367.73383032
  atomic energy  EATOM  =      5992.04272498
  ---------------------------------------------------
  free energy    TOTEN  =       -55.21336316 eV

  energy without entropy =      -55.22078526  energy(sigma->0) =      -55.21583719


--------------------------------------------------------------------------------------------------------




----------------------------------------- Iteration    1(   4)  ---------------------------------------


     EDDAV:  cpu time    4.25: real time    4.26
       DOS:  cpu time    0.00: real time    0.00
    --------------------------------------------
      LOOP:  cpu time    4.25: real time    4.27

 eigenvalue-minimisations  :  7008
 total energy-change (2. order) :-0.9978062E+00  (-0.9872271E+00)
 number of electron      68.0000000 magnetization 
 augmentation part       68.0000000 magnetization 

 Free energy of the ion-electron system (eV)
  ---------------------------------------------------
  alpha Z        PSCENC =        98.59624567
  Ewald energy   TEWEN  =     -3722.60750191
  -1/2 Hartree   DENC   =     -2597.62025708
  -exchange  EXHF       =         0.00000000
  -V(xc)+E(xc)   XCENC  =       -25.63488919
  PAW double counting   =      5442.42789652    -5610.15883456
  entropy T*S    EENTRO =         0.00397832
  eigenvalues    EBANDS =       366.73946793
  atomic energy  EATOM  =      5992.04272498
  ---------------------------------------------------
  free energy    TOTEN  =       -56.21116933 eV

  energy without entropy =      -56.21514765  energy(sigma->0) =      -56.21249544


--------------------------------------------------------------------------------------------------------




----------------------------------------- Iteration    1(   5)  ---------------------------------------


     EDDAV:  cpu time    4.57: real time    4.58
       DOS:  cpu time    0.00: real time    0.00
    CHARGE:  cpu time    0.16: real time    0.16
    MIXING:  cpu time    0.00: real time    0.00
    --------------------------------------------
      LOOP:  cpu time    4.73: real time    4.75

 eigenvalue-minimisations  :  6948
 total energy-change (2. order) :-0.1057170E-01  (-0.1055421E-01)
 number of electron      67.9998389 magnetization 
 augmentation part       22.7918731 magnetization 

 Broyden mixing:
  rms(total) = 0.30548E+01    rms(broyden)= 0.30540E+01
  rms(prec ) = 0.53056E+01
  weight for this iteration     100.00

 Free energy of the ion-electron system (eV)
  ---------------------------------------------------
  alpha Z        PSCENC =        98.59624567
  Ewald energy   TEWEN  =     -3722.60750191
  -1/2 Hartree   DENC   =     -2597.62025708
  -exchange  EXHF       =         0.00000000
  -V(xc)+E(xc)   XCENC  =       -25.63488919
  PAW double counting   =      5442.42789652    -5610.15883456
  entropy T*S    EENTRO =         0.00382189
  eigenvalues    EBANDS =       366.72905266
  atomic energy  EATOM  =      5992.04272498
  ---------------------------------------------------
  free energy    TOTEN  =       -56.22174103 eV

  energy without entropy =      -56.22556291  energy(sigma->0) =      -56.22301499


--------------------------------------------------------------------------------------------------------




----------------------------------------- Iteration    1(   6)  ---------------------------------------


    POTLOK:  cpu time    0.02: real time    0.02
    SETDIJ:  cpu time    0.01: real time    0.01
    EDDIAG:  cpu time    0.48: real time    0.49
  RMM-DIIS:  cpu time    2.23: real time    2.24
    ORTHCH:  cpu time    0.10: real time    0.10
       DOS:  cpu time    0.01: real time    0.00
    CHARGE:  cpu time    0.15: real time    0.15
    MIXING:  cpu time    0.00: real time    0.00
    --------------------------------------------
      LOOP:  cpu time    3.00: real time    3.01

 eigenvalue-minimisations  :  4749
 total energy-change (2. order) :-0.1367035E+02  (-0.3103580E+02)
 number of electron      67.9997673 magnetization 
 augmentation part       31.5411086 magnetization 

 Broyden mixing:
  rms(total) = 0.26933E+01    rms(broyden)= 0.26927E+01
  rms(prec ) = 0.46671E+01
  weight for this iteration     100.00

 eigenvalues of (default mixing * dielectric matrix)
  average eigenvalue GAMMA=   0.5318
  0.5318

 Free energy of the ion-electron system (eV)
  ---------------------------------------------------
  alpha Z        PSCENC =        98.59624567
  Ewald energy   TEWEN  =     -3722.60750191
  -1/2 Hartree   DENC   =     -2306.06199454
  -exchange  EXHF       =         0.00000000
  -V(xc)+E(xc)   XCENC  =       -36.55263341
  PAW double counting   =      5587.52251667    -5701.08967589
  entropy T*S    EENTRO =        -0.00121986
  eigenvalues    EBANDS =        18.25944529
  atomic energy  EATOM  =      5992.04272498
  ---------------------------------------------------
  free energy    TOTEN  =       -69.89209301 eV

  energy without entropy =      -69.89087315  energy(sigma->0) =      -69.89168639


--------------------------------------------------------------------------------------------------------




----------------------------------------- Iteration    1(   7)  ---------------------------------------


    POTLOK:  cpu time    0.02: real time    0.02
    SETDIJ:  cpu time    0.01: real time    0.01
    EDDIAG:  cpu time    0.48: real time    0.49
  RMM-DIIS:  cpu time    2.06: real time    2.06
    ORTHCH:  cpu time    0.10: real time    0.10
       DOS:  cpu time    0.00: real time    0.00
    CHARGE:  cpu time    0.15: real time    0.15
    MIXING:  cpu time    0.00: real time    0.00
    --------------------------------------------
      LOOP:  cpu time    2.82: real time    2.84

 eigenvalue-minimisations  :  4401
 total energy-change (2. order) : 0.2243287E+02  (-0.7313540E+01)
 number of electron      67.9997902 magnetization 
 augmentation part       28.4299267 magnetization 

 Broyden mixing:
  rms(total) = 0.59047E+00    rms(broyden)= 0.59018E+00
  rms(prec ) = 0.11680E+01
  weight for this iteration     100.00

 eigenvalues of (default mixing * dielectric matrix)
  average eigenvalue GAMMA=   0.8920
  0.6454  1.1387

 Free energy of the ion-electron system (eV)
  ---------------------------------------------------
  alpha Z        PSCENC =        98.59624567
  Ewald energy   TEWEN  =     -3722.60750191
  -1/2 Hartree   DENC   =     -2440.38643475
  -exchange  EXHF       =         0.00000000
  -V(xc)+E(xc)   XCENC  =       -31.35992992
  PAW double counting   =      5952.88646349    -6115.94498724
  entropy T*S    EENTRO =         0.00029279
  eigenvalues    EBANDS =       219.31390700
  atomic energy  EATOM  =      5992.04272498
  ---------------------------------------------------
  free energy    TOTEN  =       -47.45921990 eV

  energy without entropy =      -47.45951269  energy(sigma->0) =      -47.45931750


--------------------------------------------------------------------------------------------------------




----------------------------------------- Iteration    1(   8)  ---------------------------------------


    POTLOK:  cpu time    0.03: real time    0.02
    SETDIJ:  cpu time    0.00: real time    0.01
    EDDIAG:  cpu time    0.49: real time    0.49
  RMM-DIIS:  cpu time    2.07: real time    2.07
    ORTHCH:  cpu time    0.10: real time    0.10
       DOS:  cpu time    0.00: real time    0.00
    CHARGE:  cpu time    0.15: real time    0.15
    MIXING:  cpu time    0.01: real time    0.00
    --------------------------------------------
      LOOP:  cpu time    2.85: real time    2.85

 eigenvalue-minimisations  :  4470
 total energy-change (2. order) : 0.7602400E+00  (-0.9156819E+00)
 number of electron      67.9997981 magnetization 
 augmentation part       27.3963344 magnetization 

 Broyden mixing:
  rms(total) = 0.16336E+00    rms(broyden)= 0.16305E+00
  rms(prec ) = 0.26830E+00
  weight for this iteration     100.00

 eigenvalues of (default mixing * dielectric matrix)
  average eigenvalue GAMMA=   1.1852
  2.0773  0.7392  0.7392

 Free energy of the ion-electron system (eV)
  ---------------------------------------------------
  alpha Z        PSCENC =        98.59624567
  Ewald energy   TEWEN  =     -3722.60750191
  -1/2 Hartree   DENC   =     -2476.81983891
  -exchange  EXHF       =         0.00000000
  -V(xc)+E(xc)   XCENC  =       -30.15077186
  PAW double counting   =      6238.53994898    -6413.68530031
  entropy T*S    EENTRO =        -0.00475602
  eigenvalues    EBANDS =       267.39026948
  atomic energy  EATOM  =      5992.04272498
  ---------------------------------------------------
  free energy    TOTEN  =       -46.69897992 eV

  energy without entropy =      -46.69422390  energy(sigma->0) =      -46.69739458


--------------------------------------------------------------------------------------------------------




----------------------------------------- Iteration    1(   9)  ---------------------------------------


    POTLOK:  cpu time    0.02: real time    0.02
    SETDIJ:  cpu time    0.01: real time    0.01
    EDDIAG:  cpu time    0.48: real time    0.49
  RMM-DIIS:  cpu time    2.07: real time    2.08
    ORTHCH:  cpu time    0.10: real time    0.10
       DOS:  cpu time    0.00: real time    0.00
    CHARGE:  cpu time    0.15: real time    0.15
    MIXING:  cpu time    0.00: real time    0.00
    --------------------------------------------
      LOOP:  cpu time    2.83: real time    2.85

 eigenvalue-minimisations  :  4508
 total energy-change (2. order) :-0.1748844E-01  (-0.9946208E-01)
 number of electron      67.9997985 magnetization 
 augmentation part       27.3117408 magnetization 

 Broyden mixing:
  rms(total) = 0.91676E-01    rms(broyden)= 0.91646E-01
  rms(prec ) = 0.17993E+00
  weight for this iteration     100.00

 eigenvalues of (default mixing * dielectric matrix)
  average eigenvalue GAMMA=   1.3197
  2.2405  0.7801  0.7801  1.4783

 Free energy of the ion-electron system (eV)
  ---------------------------------------------------
  alpha Z        PSCENC =        98.59624567
  Ewald energy   TEWEN  =     -3722.60750191
  -1/2 Hartree   DENC   =     -2475.22602636
  -exchange  EXHF       =         0.00000000
  -V(xc)+E(xc)   XCENC  =       -30.29306559
  PAW double counting   =      6633.81524655    -6811.94559791
  entropy T*S    EENTRO =        -0.00557606
  eigenvalues    EBANDS =       268.90708229
  atomic energy  EATOM  =      5992.04272498
  ---------------------------------------------------
  free energy    TOTEN  =       -46.71646836 eV

  energy without entropy =      -46.71089230  energy(sigma->0) =      -46.71460967


--------------------------------------------------------------------------------------------------------




----------------------------------------- Iteration    1(  10)  ---------------------------------------


    POTLOK:  cpu time    0.02: real time    0.02
    SETDIJ:  cpu time    0.00: real time    0.01
    EDDIAG:  cpu time    0.49: real time    0.49
  RMM-DIIS:  cpu time    1.84: real time    1.85
    ORTHCH:  cpu time    0.09: real time    0.09
       DOS:  cpu time    0.00: real time    0.00
    CHARGE:  cpu time    0.15: real time    0.14
    MIXING:  cpu time    0.00: real time    0.00
    --------------------------------------------
      LOOP:  cpu time    2.60: real time    2.60

 eigenvalue-minimisations  :  4489
 total energy-change (2. order) : 0.9084950E-02  (-0.1248190E-01)
 number of electron      67.9997974 magnetization 
 augmentation part       27.4607124 magnetization 

 Broyden mixing:
  rms(total) = 0.16210E-01    rms(broyden)= 0.16183E-01
  rms(prec ) = 0.35021E-01
  weight for this iteration     100.00

 eigenvalues of (default mixing * dielectric matrix)
  average eigenvalue GAMMA=   1.4500
  2.3779  2.3779  0.7788  0.7788  0.9364

 Free energy of the ion-electron system (eV)
  ---------------------------------------------------
  alpha Z        PSCENC =        98.59624567
  Ewald energy   TEWEN  =     -3722.60750191
  -1/2 Hartree   DENC   =     -2470.72822345
  -exchange  EXHF       =         0.00000000
  -V(xc)+E(xc)   XCENC  =       -30.34996021
  PAW double counting   =      6662.33221543    -6840.35861038
  entropy T*S    EENTRO =        -0.00423152
  eigenvalues    EBANDS =       264.36995800
  atomic energy  EATOM  =      5992.04272498
  ---------------------------------------------------
  free energy    TOTEN  =       -46.70738341 eV

  energy without entropy =      -46.70315188  energy(sigma->0) =      -46.70597290


--------------------------------------------------------------------------------------------------------




----------------------------------------- Iteration    1(  11)  ---------------------------------------


    POTLOK:  cpu time    0.02: real time    0.02
    SETDIJ:  cpu time    0.00: real time    0.01
    EDDIAG:  cpu time    0.44: real time    0.43
  RMM-DIIS:  cpu time    1.64: real time    1.65
    ORTHCH:  cpu time    0.09: real time    0.09
       DOS:  cpu time    0.00: real time    0.00
    CHARGE:  cpu time    0.14: real time    0.14
    MIXING:  cpu time    0.00: real time    0.00
    --------------------------------------------
      LOOP:  cpu time    2.33: real time    2.35

 eigenvalue-minimisations  :  4458
 total energy-change (2. order) :-0.1275056E-02  (-0.1147897E-02)
 number of electron      67.9997977 magnetization 
 augmentation part       27.4201943 magnetization 

 Broyden mixing:
  rms(total) = 0.34446E-01    rms(broyden)= 0.34445E-01
  rms(prec ) = 0.57541E-01
  weight for this iteration     100.00

 eigenvalues of (default mixing * dielectric matrix)
  average eigenvalue GAMMA=   1.3583
  2.3978  2.2238  0.7900  0.7900  1.1308  0.8176

 Free energy of the ion-electron system (eV)
  ---------------------------------------------------
  alpha Z        PSCENC =        98.59624567
  Ewald energy   TEWEN  =     -3722.60750191
  -1/2 Hartree   DENC   =     -2471.06400859
  -exchange  EXHF       =         0.00000000
  -V(xc)+E(xc)   XCENC  =       -30.25577760
  PAW double counting   =      6656.69611935    -6835.13715388
  entropy T*S    EENTRO =        -0.00416583
  eigenvalues    EBANDS =       265.02485934
  atomic energy  EATOM  =      5992.04272498
  ---------------------------------------------------
  free energy    TOTEN  =       -46.70865846 eV

  energy without entropy =      -46.70449263  energy(sigma->0) =      -46.70726985


--------------------------------------------------------------------------------------------------------




----------------------------------------- Iteration    1(  12)  ---------------------------------------


    POTLOK:  cpu time    0.02: real time    0.02
    SETDIJ:  cpu time    0.00: real time    0.01
    EDDIAG:  cpu time    0.46: real time    0.46
  RMM-DIIS:  cpu time    2.05: real time    2.06
    ORTHCH:  cpu time    0.10: real time    0.10
       DOS:  cpu time    0.01: real time    0.00
    CHARGE:  cpu time    0.15: real time    0.15
    MIXING:  cpu time    0.00: real time    0.00
    --------------------------------------------
      LOOP:  cpu time    2.80: real time    2.81

 eigenvalue-minimisations  :  4436
 total energy-change (2. order) : 0.1874823E-02  (-0.1246451E-02)
 number of electron      67.9997972 magnetization 
 augmentation part       27.4839697 magnetization 

 Broyden mixing:
  rms(total) = 0.82366E-02    rms(broyden)= 0.82228E-02
  rms(prec ) = 0.13681E-01
  weight for this iteration     100.00

 eigenvalues of (default mixing * dielectric matrix)
  average eigenvalue GAMMA=   1.5679
  2.8669  2.8669  1.4434  1.4434  0.7843  0.7843  0.7860

 Free energy of the ion-electron system (eV)
  ---------------------------------------------------
  alpha Z        PSCENC =        98.59624567
  Ewald energy   TEWEN  =     -3722.60750191
  -1/2 Hartree   DENC   =     -2469.35931190
  -exchange  EXHF       =         0.00000000
  -V(xc)+E(xc)   XCENC  =       -30.33257899
  PAW double counting   =      6658.85677914    -6836.78581979
  entropy T*S    EENTRO =        -0.00373405
  eigenvalues    EBANDS =       262.88641323
  atomic energy  EATOM  =      5992.04272498
  ---------------------------------------------------
  free energy    TOTEN  =       -46.70678364 eV

  energy without entropy =      -46.70304959  energy(sigma->0) =      -46.70553896


--------------------------------------------------------------------------------------------------------




----------------------------------------- Iteration    1(  13)  ---------------------------------------


    POTLOK:  cpu time    0.02: real time    0.02
    SETDIJ:  cpu time    0.01: real time    0.01
    EDDIAG:  cpu time    0.48: real time    0.48
  RMM-DIIS:  cpu time    2.15: real time    2.15
    ORTHCH:  cpu time    0.10: real time    0.10
       DOS:  cpu time    0.00: real time    0.00
    CHARGE:  cpu time    0.15: real time    0.15
    MIXING:  cpu time    0.01: real time    0.00
    --------------------------------------------
      LOOP:  cpu time    2.92: real time    2.93

 eigenvalue-minimisations  :  4555
 total energy-change (2. order) : 0.5054205E-04  (-0.5813392E-04)
 number of electron      67.9997973 magnetization 
 augmentation part       27.4727424 magnetization 

 Broyden mixing:
  rms(total) = 0.11871E-02    rms(broyden)= 0.11866E-02
  rms(prec ) = 0.18312E-02
  weight for this iteration     100.00

 eigenvalues of (default mixing * dielectric matrix)
  average eigenvalue GAMMA=   1.4745
  2.5795  2.5795  1.6326  1.6326  0.7818  0.7818  0.7686  1.0393

 Free energy of the ion-electron system (eV)
  ---------------------------------------------------
  alpha Z        PSCENC =        98.59624567
  Ewald energy   TEWEN  =     -3722.60750191
  -1/2 Hartree   DENC   =     -2469.97754286
  -exchange  EXHF       =         0.00000000
  -V(xc)+E(xc)   XCENC  =       -30.30600292
  PAW double counting   =      6652.98944922    -6830.80495231
  entropy T*S    EENTRO =        -0.00391275
  eigenvalues    EBANDS =       263.36475979
  atomic energy  EATOM  =      5992.04272498
  ---------------------------------------------------
  free energy    TOTEN  =       -46.70673310 eV

  energy without entropy =      -46.70282035  energy(sigma->0) =      -46.70542885


--------------------------------------------------------------------------------------------------------




----------------------------------------- Iteration    1(  14)  ---------------------------------------


    POTLOK:  cpu time    0.02: real time    0.02
    SETDIJ:  cpu time    0.01: real time    0.01
    EDDIAG:  cpu time    0.48: real time    0.48
  RMM-DIIS:  cpu time    2.32: real time    2.33
    ORTHCH:  cpu time    0.10: real time    0.10
       DOS:  cpu time    0.01: real time    0.00
    CHARGE:  cpu time    0.15: real time    0.15
    MIXING:  cpu time    0.00: real time    0.00
    --------------------------------------------
      LOOP:  cpu time    3.09: real time    3.11

 eigenvalue-minimisations  :  5011
 total energy-change (2. order) :-0.1147918E-04  (-0.7974397E-05)
 number of electron      67.9997973 magnetization 
 augmentation part       27.4726377 magnetization 

 Broyden mixing:
  rms(total) = 0.14836E-02    rms(broyden)= 0.14836E-02
  rms(prec ) = 0.23083E-02
  weight for this iteration     100.00

 eigenvalues of (default mixing * dielectric matrix)
  average eigenvalue GAMMA=   1.4437
  2.6917  2.6917  1.8507  1.8507  1.0330  0.7782  0.7782  0.7415  0.5775

 Free energy of the ion-electron system (eV)
  ---------------------------------------------------
  alpha Z        PSCENC =        98.59624567
  Ewald energy   TEWEN  =     -3722.60750191
  -1/2 Hartree   DENC   =     -2469.95558863
  -exchange  EXHF       =         0.00000000
  -V(xc)+E(xc)   XCENC  =       -30.30449881
  PAW double counting   =      6652.94408569    -6830.80050461
  entropy T*S    EENTRO =        -0.00388807
  eigenvalues    EBANDS =       263.38218112
  atomic energy  EATOM  =      5992.04272498
  ---------------------------------------------------
  free energy    TOTEN  =       -46.70674458 eV

  energy without entropy =      -46.70285651  energy(sigma->0) =      -46.70544856


--------------------------------------------------------------------------------------------------------




----------------------------------------- Iteration    1(  15)  ---------------------------------------


    POTLOK:  cpu time    0.03: real time    0.02
    SETDIJ:  cpu time    0.00: real time    0.01
    EDDIAG:  cpu time    0.49: real time    0.49
  RMM-DIIS:  cpu time    2.01: real time    2.02
    ORTHCH:  cpu time    0.10: real time    0.10
       DOS:  cpu time    0.00: real time    0.00
    CHARGE:  cpu time    0.16: real time    0.15
    MIXING:  cpu time    0.00: real time    0.00
    --------------------------------------------
      LOOP:  cpu time    2.79: real time    2.80

 eigenvalue-minimisations  :  4332
 total energy-change (2. order) : 0.2602280E-05  (-0.1161028E-05)
 number of electron      67.9997973 magnetization 
 augmentation part       27.4716381 magnetization 

 Broyden mixing:
  rms(total) = 0.15564E-02    rms(broyden)= 0.15563E-02
  rms(prec ) = 0.23960E-02
  weight for this iteration     100.00

 eigenvalues of (default mixing * dielectric matrix)
  average eigenvalue GAMMA=   1.4965
  2.8313  2.5338  1.7864  1.7864  1.5412  0.7830  0.7830  1.1857  0.9447  0.7894

 Free energy of the ion-electron system (eV)
  ---------------------------------------------------
  alpha Z        PSCENC =        98.59624567
  Ewald energy   TEWEN  =     -3722.60750191
  -1/2 Hartree   DENC   =     -2470.04561205
  -exchange  EXHF       =         0.00000000
  -V(xc)+E(xc)   XCENC  =       -30.30311574
  PAW double counting   =      6650.67345730    -6828.50677861
  entropy T*S    EENTRO =        -0.00390484
  eigenvalues    EBANDS =       263.44774324
  atomic energy  EATOM  =      5992.04272498
  ---------------------------------------------------
  free energy    TOTEN  =       -46.70674198 eV

  energy without entropy =      -46.70283713  energy(sigma->0) =      -46.70544036


--------------------------------------------------------------------------------------------------------




----------------------------------------- Iteration    1(  16)  ---------------------------------------


    POTLOK:  cpu time    0.02: real time    0.02
    SETDIJ:  cpu time    0.01: real time    0.01
    EDDIAG:  cpu time    0.48: real time    0.48
  RMM-DIIS:  cpu time    2.00: real time    2.01
    ORTHCH:  cpu time    0.09: real time    0.09
       DOS:  cpu time    0.01: real time    0.00
    CHARGE:  cpu time    0.14: real time    0.14
    MIXING:  cpu time    0.00: real time    0.00
    --------------------------------------------
      LOOP:  cpu time    2.75: real time    2.77

 eigenvalue-minimisations  :  4222
 total energy-change (2. order) : 0.2607357E-05  (-0.1387452E-05)
 number of electron      67.9997973 magnetization 
 augmentation part       27.4735162 magnetization 

 Broyden mixing:
  rms(total) = 0.43300E-03    rms(broyden)= 0.43283E-03
  rms(prec ) = 0.50223E-03
  weight for this iteration     100.00

 eigenvalues of (default mixing * dielectric matrix)
  average eigenvalue GAMMA=   1.7060
  4.5985  2.5878  2.2154  2.0745  2.0745  0.7835  0.7835  1.0513  0.7810  0.9081
  0.9081

 Free energy of the ion-electron system (eV)
  ---------------------------------------------------
  alpha Z        PSCENC =        98.59624567
  Ewald energy   TEWEN  =     -3722.60750191
  -1/2 Hartree   DENC   =     -2469.98973392
  -exchange  EXHF       =         0.00000000
  -V(xc)+E(xc)   XCENC  =       -30.30672709
  PAW double counting   =      6651.12221860    -6828.95071342
  entropy T*S    EENTRO =        -0.00390277
  eigenvalues    EBANDS =       263.39065050
  atomic energy  EATOM  =      5992.04272498
  ---------------------------------------------------
  free energy    TOTEN  =       -46.70673937 eV

  energy without entropy =      -46.70283660  energy(sigma->0) =      -46.70543845


--------------------------------------------------------------------------------------------------------




----------------------------------------- Iteration    1(  17)  ---------------------------------------


    POTLOK:  cpu time    0.02: real time    0.02
    SETDIJ:  cpu time    0.00: real time    0.01
    EDDIAG:  cpu time    0.44: real time    0.44
  RMM-DIIS:  cpu time    1.03: real time    1.03
    ORTHCH:  cpu time    0.09: real time    0.09
       DOS:  cpu time    0.00: real time    0.00
    --------------------------------------------
      LOOP:  cpu time    1.58: real time    1.60

 eigenvalue-minimisations  :  2643
 total energy-change (2. order) :-0.5518159E-06  (-0.1573586E-06)
 number of electron      67.9997973 magnetization 
 augmentation part       27.4735162 magnetization 

 Free energy of the ion-electron system (eV)
  ---------------------------------------------------
  alpha Z        PSCENC =        98.59624567
  Ewald energy   TEWEN  =     -3722.60750191
  -1/2 Hartree   DENC   =     -2469.98074069
  -exchange  EXHF       =         0.00000000
  -V(xc)+E(xc)   XCENC  =       -30.30757723
  PAW double counting   =      6649.61357797    -6827.44474316
  entropy T*S    EENTRO =        -0.00390156
  eigenvalues    EBANDS =       263.38517603
  atomic energy  EATOM  =      5992.04272498
  ---------------------------------------------------
  free energy    TOTEN  =       -46.70673992 eV

  energy without entropy =      -46.70283836  energy(sigma->0) =      -46.70543940


--------------------------------------------------------------------------------------------------------




 average (electrostatic) potential at core
  the test charge radii are     0.9430  1.0406
  (the norm of the test charge is              1.0000)
       1 -64.3083       2 -64.3083       3 -64.3083       4 -64.3083       5 -72.4753
       6 -72.4753       7 -72.4753       8 -72.4753       9 -72.4753      10 -72.4753
      11 -72.4753      12 -72.4753
 
 
 
 E-fermi :   8.0467     XC(G=0): -10.8939     alpha+bet :-14.6577


 k-point   1 :       0.0000    0.0000    0.0000
  band No.  band energies     occupation 
      1      -2.7357      2.00000
      2       1.0538      2.00000
      3       1.1188      2.00000
      4       1.2533      2.00000
      5       1.2533      2.00000
      6       2.7397      2.00000
      7       2.7488      2.00000
      8       2.9463      2.00000
      9       2.9463      2.00000
     10       2.9587      2.00000
     11       3.2572      2.00000
     12       3.2572      2.00000
     13       3.5207      2.00000
     14       3.6508      2.00000
     15       3.8609      2.00000
     16       3.9448      2.00000
     17       3.9602      2.00000
     18       3.9937      2.00000
     19       4.2743      2.00000
     20       4.2978      2.00000
     21       4.6106      2.00000
     22       4.7109      2.00000
     23       4.8524      2.00000
     24       4.8524      2.00000
     25       4.8608      2.00000
     26       4.8608      2.00000
     27       5.1231      2.00000
     28       5.1231      2.00000
     29       6.0529      2.00000
     30       6.2464      2.00000
     31       6.7564      2.00000
     32       6.8912      2.00000
     33       6.8912      2.00000
     34       7.2241      2.00000
     35       7.7221      2.04401
     36       8.0928      0.62110
     37       9.5387      0.00000
     38       9.5387      0.00000
     39       9.7888      0.00000
     40      10.6350      0.00000
     41      11.0434      0.00000
     42      11.0434      0.00000
     43      11.4207      0.00000
     44      12.1384      0.00000

 k-point   2 :       0.1429    0.0000    0.0000
  band No.  band energies     occupation 
      1      -2.6517      2.00000
      2       0.1905      2.00000
      3       1.1625      2.00000
      4       1.3134      2.00000
      5       2.1662      2.00000
      6       2.6550      2.00000
      7       2.8192      2.00000
      8       2.9030      2.00000
      9       2.9376      2.00000
     10       2.9619      2.00000
     11       3.1323      2.00000
     12       3.2414      2.00000
     13       3.7105      2.00000
     14       3.7351      2.00000
     15       3.7988      2.00000
     16       3.9649      2.00000
     17       3.9706      2.00000
     18       4.0068      2.00000
     19       4.2674      2.00000
     20       4.2720      2.00000
     21       4.5156      2.00000
     22       4.6350      2.00000
     23       4.7789      2.00000
     24       4.8530      2.00000
     25       4.8532      2.00000
     26       4.8604      2.00000
     27       4.8606      2.00000
     28       4.9175      2.00000
     29       6.2243      2.00000
     30       6.5135      2.00000
     31       6.5824      2.00000
     32       6.7490      2.00000
     33       7.0007      2.00000
     34       7.4096      2.00006
     35       7.9461      1.74356
     36       8.5140     -0.00466
     37       9.5788      0.00000
     38       9.9817      0.00000
     39      10.0254      0.00000
     40      10.1599      0.00000
     41      10.2314      0.00000
     42      10.7510      0.00000
     43      11.5904      0.00000
     44      11.7795      0.00000

 k-point   3 :       0.2857    0.0000    0.0000
  band No.  band energies     occupation 
      1      -2.4005      2.00000
      2      -0.6774      2.00000
      3       1.3957      2.00000
      4       1.4881      2.00000
      5       2.4188      2.00000
      6       2.6763      2.00000
      7       2.8971      2.00000
      8       2.9190      2.00000
      9       3.0019      2.00000
     10       3.0052      2.00000
     11       3.0250      2.00000
     12       3.1980      2.00000
     13       3.5685      2.00000
     14       3.9130      2.00000
     15       4.0018      2.00000
     16       4.0123      2.00000
     17       4.0249      2.00000
     18       4.1333      2.00000
     19       4.2063      2.00000
     20       4.2451      2.00000
     21       4.2607      2.00000
     22       4.2682      2.00000
     23       4.5734      2.00000
     24       4.8534      2.00000
     25       4.8542      2.00000
     26       4.8586      2.00000
     27       4.8599      2.00000
     28       5.1333      2.00000
     29       5.9076      2.00000
     30       6.1676      2.00000
     31       6.2391      2.00000
     32       7.3155      2.00000
     33       7.6259      2.01126
     34       7.7092      2.03818
     35       8.8514      0.00000
     36       9.0486      0.00000
     37       9.2428      0.00000
     38       9.4969      0.00000
     39       9.6488      0.00000
     40      10.2368      0.00000
     41      10.4107      0.00000
     42      10.7036      0.00000
     43      10.9388      0.00000
     44      11.0858      0.00000

 k-point   4 :       0.4286    0.0000    0.0000
  band No.  band energies     occupation 
      1      -1.9841      2.00000
      2      -1.4072      2.00000
      3       1.7603      2.00000
      4       1.7691      2.00000
      5       2.0927      2.00000
      6       2.2394      2.00000
      7       2.9103      2.00000
      8       2.9308      2.00000
      9       3.0676      2.00000
     10       3.1363      2.00000
     11       3.2028      2.00000
     12       3.3500      2.00000
     13       3.3586      2.00000
     14       3.7474      2.00000
     15       4.0556      2.00000
     16       4.0965      2.00000
     17       4.1281      2.00000
     18       4.1342      2.00000
     19       4.1704      2.00000
     20       4.1708      2.00000
     21       4.2087      2.00000
     22       4.3082      2.00000
     23       4.6407      2.00000
     24       4.8551      2.00000
     25       4.8561      2.00000
     26       4.8567      2.00000
     27       4.8580      2.00000
     28       5.2433      2.00000
     29       6.0636      2.00000
     30       6.1049      2.00000
     31       6.1089      2.00000
     32       7.2634      2.00000
     33       7.8080      2.07060
     34       8.1699      0.14577
     35       8.4552     -0.01390
     36       8.7794      0.00000
     37       9.4122      0.00000
     38       9.7804      0.00000
     39       9.9260      0.00000
     40      10.1092      0.00000
     41      10.4019      0.00000
     42      10.5324      0.00000
     43      11.5840      0.00000
     44      11.8834      0.00000

 k-point   5 :       0.1429    0.1429    0.0000
  band No.  band energies     occupation 
      1      -2.5679      2.00000
      2       0.2367      2.00000
      3       0.2979      2.00000
      4       2.1746      2.00000
      5       2.2541      2.00000
      6       2.4173      2.00000
      7       2.8876      2.00000
      8       2.9083      2.00000
      9       2.9358      2.00000
     10       2.9986      2.00000
     11       3.0461      2.00000
     12       3.2634      2.00000
     13       3.7565      2.00000
     14       3.7743      2.00000
     15       3.8731      2.00000
     16       3.9813      2.00000
     17       4.0219      2.00000
     18       4.0240      2.00000
     19       4.1848      2.00000
     20       4.2202      2.00000
     21       4.2614      2.00000
     22       4.4820      2.00000
     23       4.8392      2.00000
     24       4.8527      2.00000
     25       4.8543      2.00000
     26       4.8594      2.00000
     27       4.8606      2.00000
     28       5.3520      2.00000
     29       6.1942      2.00000
     30       6.3500      2.00000
     31       6.3891      2.00000
     32       6.6081      2.00000
     33       7.0565      2.00000
     34       7.3603      2.00001
     35       8.4563     -0.01365
     36       8.9074      0.00000
     37       9.5039      0.00000
     38       9.7733      0.00000
     39      10.0085      0.00000
     40      10.1292      0.00000
     41      10.1391      0.00000
     42      11.2346      0.00000
     43      11.7616      0.00000
     44      11.8797      0.00000

 k-point   6 :       0.2857    0.1429    0.0000
  band No.  band energies     occupation 
      1      -2.3171      2.00000
      2      -0.5990      2.00000
      3       0.4975      2.00000
      4       1.9145      2.00000
      5       2.3596      2.00000
      6       2.8771      2.00000
      7       2.9054      2.00000
      8       2.9178      2.00000
      9       2.9409      2.00000
     10       3.0555      2.00000
     11       3.0876      2.00000
     12       3.2441      2.00000
     13       3.6105      2.00000
     14       3.8557      2.00000
     15       3.9843      2.00000
     16       4.0152      2.00000
     17       4.0227      2.00000
     18       4.1089      2.00000
     19       4.2199      2.00000
     20       4.2428      2.00000
     21       4.2594      2.00000
     22       4.3527      2.00000
     23       4.8525      2.00000
     24       4.8556      2.00000
     25       4.8570      2.00000
     26       4.8600      2.00000
     27       5.1694      2.00000
     28       5.1734      2.00000
     29       5.9038      2.00000
     30       6.0451      2.00000
     31       6.1128      2.00000
     32       7.1550      2.00000
     33       7.2659      2.00000
     34       7.4706      2.00036
     35       8.7414     -0.00001
     36       9.0411      0.00000
     37       9.3004      0.00000
     38       9.4984      0.00000
     39      10.1253      0.00000
     40      10.5882      0.00000
     41      10.7911      0.00000
     42      10.9060      0.00000
     43      11.1413      0.00000
     44      11.4838      0.00000

 k-point   7 :       0.4286    0.1429    0.0000
  band No.  band energies     occupation 
      1      -1.9017      2.00000
      2      -1.3263      2.00000
      3       0.8670      2.00000
      4       1.3571      2.00000
      5       2.5689      2.00000
      6       2.7753      2.00000
      7       2.8626      2.00000
      8       2.8795      2.00000
      9       3.1228      2.00000
     10       3.1902      2.00000
     11       3.2277      2.00000
     12       3.3971      2.00000
     13       3.4071      2.00000
     14       3.7577      2.00000
     15       3.9267      2.00000
     16       3.9601      2.00000
     17       4.0731      2.00000
     18       4.1228      2.00000
     19       4.2125      2.00000
     20       4.2159      2.00000
     21       4.5244      2.00000
     22       4.7016      2.00000
     23       4.7996      2.00000
     24       4.8534      2.00000
     25       4.8552      2.00000
     26       4.8570      2.00000
     27       4.8592      2.00000
     28       5.2813      2.00000
     29       5.9537      2.00000
     30       6.0112      2.00000
     31       6.0959      2.00000
     32       7.1944      2.00000
     33       7.6199      2.01013
     34       7.8235      2.06669
     35       8.1110      0.48566
     36       8.3667     -0.04612
     37       9.4997      0.00000
     38       9.9249      0.00000
     39      10.3724      0.00000
     40      10.5877      0.00000
     41      10.6673      0.00000
     42      11.0791      0.00000
     43      11.1578      0.00000
     44      12.0222      0.00000

 k-point   8 :       0.2857    0.2857    0.0000
  band No.  band energies     occupation 
      1      -2.0678      2.00000
      2      -0.4258      2.00000
      3      -0.2914      2.00000
      4       1.2154      2.00000
      5       2.8257      2.00000
      6       2.8568      2.00000
      7       2.8996      2.00000
      8       3.0059      2.00000
      9       3.0695      2.00000
     10       3.1355      2.00000
     11       3.2643      2.00000
     12       3.2791      2.00000
     13       3.6307      2.00000
     14       3.8295      2.00000
     15       3.8424      2.00000
     16       3.9388      2.00000
     17       4.0582      2.00000
     18       4.1025      2.00000
     19       4.2331      2.00000
     20       4.4034      2.00000
     21       4.4780      2.00000
     22       4.8401      2.00000
     23       4.8515      2.00000
[...]
     33       7.1336      2.00000
     34       7.6034      2.00676
     35       7.8548      2.04709
     36       8.1325      0.37560
     37       9.4766      0.00000
     38      10.0821      0.00000
     39      10.7929      0.00000
     40      12.3370      0.00000
     41      12.8067      0.00000
     42      13.2758      0.00000
     43      13.4348      0.00000
     44      13.5640      0.00000

 k-point  46 :       0.2857    0.1429    0.4444
  band No.  band energies     occupation 
      1      -1.0693      2.00000
      2      -0.3849      2.00000
      3       0.5824      2.00000
      4       1.2020      2.00000
      5       1.5913      2.00000
      6       2.1205      2.00000
      7       2.7292      2.00000
      8       3.0137      2.00000
      9       3.1243      2.00000
     10       3.4035      2.00000
     11       3.5280      2.00000
     12       3.6340      2.00000
     13       3.6430      2.00000
     14       3.6530      2.00000
     15       3.8295      2.00000
     16       3.8508      2.00000
     17       3.9342      2.00000
     18       3.9945      2.00000
     19       3.9972      2.00000
     20       4.0228      2.00000
     21       4.0572      2.00000
     22       4.0664      2.00000
     23       4.0880      2.00000
     24       4.1834      2.00000
     25       4.5815      2.00000
     26       4.6191      2.00000
     27       4.9755      2.00000
     28       5.2988      2.00000
     29       5.4027      2.00000
     30       5.7930      2.00000
     31       6.1342      2.00000
     32       6.5613      2.00000
     33       6.7077      2.00000
     34       7.2117      2.00000
     35       8.4875     -0.00863
     36       9.1434      0.00000
     37      10.4009      0.00000
     38      10.7272      0.00000
     39      11.3121      0.00000
     40      11.3978      0.00000
     41      12.1356      0.00000
     42      12.6572      0.00000
     43      12.7782      0.00000
     44      13.3674      0.00000

 k-point  47 :       0.4286    0.1429    0.4444
  band No.  band energies     occupation 
      1      -0.6664      2.00000
      2      -0.1114      2.00000
      3       0.0077      2.00000
      4       0.5441      2.00000
      5       1.9122      2.00000
      6       2.3151      2.00000
      7       2.3873      2.00000
      8       2.7053      2.00000
      9       3.3033      2.00000
     10       3.4881      2.00000
     11       3.5330      2.00000
     12       3.6131      2.00000
     13       3.7383      2.00000
     14       3.7821      2.00000
     15       3.8287      2.00000
     16       3.9139      2.00000
     17       3.9221      2.00000
     18       3.9721      2.00000
     19       3.9781      2.00000
     20       3.9842      2.00000
     21       3.9942      2.00000
     22       4.0288      2.00000
     23       4.1099      2.00000
     24       4.1416      2.00000
     25       4.6108      2.00000
     26       4.6979      2.00000
     27       4.7190      2.00000
     28       4.9017      2.00000
     29       5.6546      2.00000
     30       6.0540      2.00000
     31       6.1158      2.00000
     32       6.5797      2.00000
     33       7.3654      2.00001
     34       7.9626      1.67876
     35       8.6372     -0.00028
     36       9.2806      0.00000
     37      10.4716      0.00000
     38      10.9728      0.00000
     39      11.6148      0.00000
     40      11.8276      0.00000
     41      12.0594      0.00000
     42      12.2161      0.00000
     43      12.3992      0.00000
     44      12.8239      0.00000

 k-point  48 :       0.2857    0.2857    0.4444
  band No.  band energies     occupation 
      1      -0.8272      2.00000
      2      -0.1487      2.00000
      3       0.7973      2.00000
      4       0.8144      2.00000
      5       1.3593      2.00000
      6       1.4710      2.00000
      7       2.2029      2.00000
      8       2.6277      2.00000
      9       3.5105      2.00000
     10       3.5956      2.00000
     11       3.6533      2.00000
     12       3.6674      2.00000
     13       3.6948      2.00000
     14       3.7049      2.00000
     15       3.8387      2.00000
     16       3.8859      2.00000
     17       3.9698      2.00000
     18       3.9807      2.00000
     19       3.9869      2.00000
     20       4.0091      2.00000
     21       4.0401      2.00000
     22       4.0719      2.00000
     23       4.0968      2.00000
     24       4.2000      2.00000
     25       4.4463      2.00000
     26       4.4827      2.00000
     27       4.6620      2.00000
     28       4.8181      2.00000
     29       6.3148      2.00000
     30       6.3159      2.00000
     31       6.8290      2.00000
     32       6.8953      2.00000
     33       7.6188      2.00903
     34       7.8290      2.06659
     35       8.3420     -0.05960
     36       8.3907     -0.03765
     37      10.8848      0.00000
     38      10.8893      0.00000
     39      11.1988      0.00000
     40      11.8146      0.00000
     41      12.0415      0.00000
     42      12.3140      0.00000
     43      12.3635      0.00000
     44      12.7015      0.00000

 k-point  49 :       0.4286    0.2857    0.4444
  band No.  band energies     occupation 
      1      -0.4278      2.00000
      2       0.1216      2.00000
      3       0.2392      2.00000
      4       0.7668      2.00000
      5       1.1679      2.00000
      6       1.6488      2.00000
      7       1.7492      2.00000
      8       2.1725      2.00000
      9       3.6197      2.00000
     10       3.6803      2.00000
     11       3.6883      2.00000
     12       3.7003      2.00000
     13       3.7435      2.00000
     14       3.8181      2.00000
     15       3.8260      2.00000
     16       3.9440      2.00000
     17       3.9529      2.00000
     18       3.9737      2.00000
     19       3.9751      2.00000
     20       4.0069      2.00000
     21       4.0158      2.00000
     22       4.0538      2.00000
     23       4.1229      2.00000
     24       4.1677      2.00000
     25       4.4337      2.00000
     26       4.4624      2.00000
     27       4.5123      2.00000
     28       4.5468      2.00000
     29       6.6328      2.00000
     30       7.0969      2.00000
     31       7.2110      2.00000
     32       7.5227      2.00118
     33       7.7326      2.04644
     34       8.1722      0.15860
     35       8.4974     -0.00717
     36       9.1970      0.00000
     37      10.0528      0.00000
     38      10.5088      0.00000
     39      10.9971      0.00000
     40      11.4214      0.00000
     41      11.5879      0.00000
     42      11.6104      0.00000
     43      12.0745      0.00000
     44      12.0955      0.00000

 k-point  50 :       0.4286    0.4286    0.4444
  band No.  band energies     occupation 
      1      -0.0347      2.00000
      2       0.4943      2.00000
      3       0.5130      2.00000
      4       0.6176      2.00000
      5       1.0221      2.00000
      6       1.0914      2.00000
      7       1.1725      2.00000
      8       1.6156      2.00000
      9       3.7262      2.00000
     10       3.7299      2.00000
     11       3.7311      2.00000
     12       3.7334      2.00000
     13       3.7873      2.00000
     14       3.8234      2.00000
     15       3.9020      2.00000
     16       3.9493      2.00000
     17       3.9716      2.00000
     18       3.9730      2.00000
     19       3.9905      2.00000
     20       4.0083      2.00000
     21       4.0490      2.00000
     22       4.0648      2.00000
     23       4.1544      2.00000
     24       4.1945      2.00000
     25       4.3007      2.00000
     26       4.3517      2.00000
     27       4.3995      2.00000
     28       4.4139      2.00000
     29       7.7005      2.03227
     30       7.9445      1.77973
     31       8.0776      0.78447
     32       8.2718     -0.06523
     33       8.3115     -0.06942
     34       8.6524     -0.00018
     35       8.7024     -0.00004
     36       9.0389      0.00000
     37       9.9715      0.00000
     38      10.1942      0.00000
     39      10.2135      0.00000
     40      10.4598      0.00000
     41      10.6370      0.00000
     42      10.7925      0.00000
     43      10.8561      0.00000
     44      11.1525      0.00000


--------------------------------------------------------------------------------------------------------


 soft charge-density along one line, spin component           1
         0         1         2         3         4         5         6         7         8         9
 total charge-density along one line
 
 pseudopotential strength for first ion, spin component:           1
 -3.407   0.000   0.000   0.000   0.000  -4.315   0.000   0.000
  0.000  -3.364   0.000   0.000   0.000   0.000  -4.347   0.000
  0.000   0.000  -3.365   0.000   0.000   0.000   0.000  -4.346
  0.000   0.000   0.000  -3.364   0.000   0.000   0.000   0.000
  0.000   0.000   0.000   0.000  -3.398   0.000   0.000   0.000
 -4.315   0.000   0.000   0.000   0.000   9.978   0.000   0.000
  0.000  -4.347   0.000   0.000   0.000   0.000  10.004   0.000
  0.000   0.000  -4.346   0.000   0.000   0.000   0.000  10.003
  0.000   0.000   0.000  -4.347   0.000   0.000   0.000   0.000
  0.000   0.000   0.000   0.000  -4.322   0.000   0.000   0.000
  0.000   0.000  -0.003   0.000   0.000   0.000   0.000   0.004
  0.000   0.000  -0.006   0.000   0.000   0.000   0.000   0.008
  0.000   0.000   0.000   0.000   0.000   0.000   0.000   0.000
  0.000   0.000   0.000   0.000   0.000   0.000   0.000   0.000
  0.000   0.000   0.000   0.000   0.000   0.000   0.000   0.000
  0.000   0.000   0.000   0.000   0.000   0.000   0.000   0.000
  0.000   0.000   0.000   0.000   0.000   0.000   0.000   0.000
  0.000   0.000   0.000   0.000   0.000   0.000   0.000   0.000
 total augmentation occupancy for first ion, spin component:           1
  1.897   0.000   0.000   0.000   0.000  -0.010   0.000   0.000   0.000   0.000   0.000   0.000   0.000   0.000   0.000   0.000
  0.000   1.919   0.000   0.000   0.000   0.000  -0.022   0.000   0.000   0.000   0.000   0.000   0.000   0.000   0.000   0.000
  0.000   0.000   1.904   0.000   0.000   0.000   0.000  -0.009   0.000   0.000  -0.005  -0.010   0.000   0.000   0.000   0.000
  0.000   0.000   0.000   1.919   0.000   0.000   0.000   0.000  -0.022   0.000   0.000   0.000   0.000   0.000   0.000   0.000
  0.000   0.000   0.000   0.000   1.911   0.000   0.000   0.000   0.000  -0.020   0.000   0.000   0.000   0.000   0.000   0.000
 -0.010   0.000   0.000   0.000   0.000   0.013   0.000   0.000   0.000   0.000   0.000   0.000   0.000   0.000   0.000   0.000
  0.000  -0.022   0.000   0.000   0.000   0.000   0.019   0.000   0.000   0.000   0.000   0.000   0.000   0.000   0.000   0.000
  0.000   0.000  -0.009   0.000   0.000   0.000   0.000   0.019   0.000   0.000   0.025  -0.002   0.000   0.000   0.000   0.000
  0.000   0.000   0.000  -0.022   0.000   0.000   0.000   0.000   0.019   0.000   0.000   0.000   0.000   0.000   0.000   0.000
  0.000   0.000   0.000   0.000  -0.020   0.000   0.000   0.000   0.000   0.012   0.000   0.000   0.000   0.000   0.000   0.000
  0.000   0.000  -0.005   0.000   0.000   0.000   0.000   0.025   0.000   0.000   1.914  -0.168   0.000   0.000   0.000   0.000
  0.000   0.000  -0.010   0.000   0.000   0.000   0.000  -0.002   0.000   0.000  -0.168   0.025   0.000   0.000   0.000   0.000
  0.000   0.000   0.000   0.000   0.000   0.000   0.000   0.000   0.000   0.000   0.000   0.000   0.305   0.000   0.000  -0.016
  0.000   0.000   0.000   0.000   0.000   0.000   0.000   0.000   0.000   0.000   0.000   0.000   0.000   0.343   0.000   0.000
  0.000   0.000   0.000   0.000   0.000   0.000   0.000   0.000   0.000   0.000   0.000   0.000   0.000   0.000   0.305   0.000
  0.000   0.000   0.000   0.000   0.000   0.000   0.000   0.000   0.000   0.000   0.000   0.000  -0.016   0.000   0.000   0.001
  0.000   0.000   0.000   0.000   0.000   0.000   0.000   0.000   0.000   0.000   0.000   0.000   0.000  -0.020   0.000   0.000
  0.000   0.000   0.000   0.000   0.000   0.000   0.000   0.000   0.000   0.000   0.000   0.000   0.000   0.000  -0.016   0.000


------------------------ aborting loop because EDIFF is reached ----------------------------------------


    CHARGE:  cpu time    0.16: real time    0.16
    FORLOC:  cpu time    0.01: real time    0.00
    FORNL :  cpu time    1.17: real time    1.17
    STRESS:  cpu time    3.17: real time    3.18
    FORCOR:  cpu time    0.03: real time    0.03
    FORHAR:  cpu time    0.00: real time    0.01
    MIXING:  cpu time    0.00: real time    0.00

  FORCE on cell =-STRESS in cart. coord.  units (eV):
  Direction    XX          YY          ZZ          XY          YZ          ZX
  --------------------------------------------------------------------------------------
  Alpha Z    98.62254    98.62254    98.62254
  Ewald   -1680.76314 -1680.76314  -358.85987     0.00000     0.00000     0.00000
  Hartree   457.41757   457.41757  1557.47450     0.00000     0.00000     0.00000
  E(xc)    -325.93835  -325.93835  -325.55026     0.00000     0.00000     0.00000
  Local     520.30131   520.30131 -1899.36884     0.00000     0.00000     0.00000
  n-local    75.66948    76.53613    74.76232     0.07375     0.50087     0.42917
  augment   373.69959   373.69959   373.91159    -0.00002    -0.00002    -0.00003
  Kinetic   478.05089   483.04986   479.02544    -2.56831     3.88177     3.37790
  Fock        0.00000     0.00000     0.00000     0.00000     0.00000     0.00000
  -------------------------------------------------------------------------------------
  Total      -0.00731    -0.00731     0.01741     0.00000     0.00000     0.00000
  in kB      -0.06606    -0.06606     0.15744     0.00000     0.00000     0.00000
  external pressure =        0.01 kB  Pullay stress =        0.00 kB


 VOLUME and BASIS-vectors are now :
 -----------------------------------------------------------------------------
  energy-cutoff  :      295.45
  volume of cell :      177.19
      direct lattice vectors                 reciprocal lattice vectors
     6.048731040  0.000000000  0.000000000     0.165323932  0.000000000  0.000000000
     0.000000000  6.048731040  0.000000000     0.000000000  0.165323932  0.000000000
     0.000000000  0.000000000  4.842889662     0.000000000  0.000000000  0.206488289

  length of vectors
     6.048731040  6.048731040  4.842889662     0.165323932  0.165323932  0.206488289


 FORCES acting on ions
    electron-ion (+dipol)            ewald-force                    non-local-force                 convergence-correction
 -----------------------------------------------------------------------------------------------
   0.925E-14 -.135E-13 -.679E-13   -.187E-13 -.209E-13 -.888E-14   0.867E-18 0.174E-21 0.000E+00   -.130E-12 -.180E-12 0.258E-12
   -.204E-13 -.114E-13 -.351E-12   -.444E-14 -.102E-13 -.533E-14   0.000E+00 -.173E-17 0.000E+00   -.231E-12 -.790E-13 -.327E-13
   0.125E-11 0.262E-11 -.468E-12   -.888E-14 -.933E-14 0.155E-14   0.867E-18 0.174E-21 0.000E+00   -.872E-14 0.931E-13 -.391E-13
   0.123E-11 0.467E-11 0.207E-11   0.178E-14 0.488E-14 -.194E-13   0.000E+00 -.173E-17 0.000E+00   -.115E-12 0.133E-12 0.220E-12
   0.271E+02 0.271E+02 0.189E-05   -.275E+02 -.275E+02 0.779E-14   0.384E+00 0.384E+00 0.173E-17   -.130E-03 -.130E-03 -.943E-14
   -.271E+02 0.271E+02 0.151E-12   0.275E+02 -.275E+02 -.286E-14   -.384E+00 0.384E+00 -.867E-17   0.130E-03 -.130E-03 -.713E-14
   -.271E+02 -.271E+02 -.189E-05   0.275E+02 0.275E+02 0.429E-14   -.384E+00 -.384E+00 -.260E-17   0.130E-03 0.130E-03 -.275E-13
   0.271E+02 -.271E+02 -.667E-13   -.275E+02 0.275E+02 0.800E-15   0.384E+00 -.384E+00 0.694E-17   -.130E-03 0.130E-03 -.104E-13
   0.271E+02 -.271E+02 -.441E-15   -.275E+02 0.275E+02 0.654E-14   0.384E+00 -.384E+00 0.694E-17   -.130E-03 0.130E-03 0.138E-13
   -.271E+02 0.271E+02 -.142E-13   0.275E+02 -.275E+02 0.297E-14   -.384E+00 0.384E+00 0.173E-17   0.130E-03 -.130E-03 0.157E-13
   0.271E+02 0.271E+02 0.189E-05   -.275E+02 -.275E+02 0.102E-13   0.384E+00 0.384E+00 0.104E-16   -.130E-03 -.130E-03 0.191E-13
   -.271E+02 -.271E+02 -.189E-05   0.275E+02 0.275E+02 0.662E-14   -.384E+00 -.384E+00 -.260E-17   0.130E-03 0.130E-03 0.404E-14
 -----------------------------------------------------------------------------------------------
   0.504E-11 0.771E-11 0.101E-11   0.107E-13 0.320E-13 0.422E-14   -.111E-15 0.555E-16 0.139E-16   -.457E-12 -.314E-13 0.405E-12
 
 
 POSITION                                       TOTAL-FORCE (eV/Angst)
 -----------------------------------------------------------------------------------
      0.00000      0.00000      1.21072         0.000000      0.000000      0.000000
      0.00000      0.00000      3.63217         0.000000      0.000000      0.000000
      3.02437      3.02437      3.63217         0.000000      0.000000      0.000000
      3.02437      3.02437      1.21072         0.000000      0.000000      0.000000
      0.95705      3.98141      0.00000         0.000187      0.000187      0.000000
      2.06732      0.95705      0.00000        -0.000187      0.000187      0.000000
      5.09168      2.06732      0.00000        -0.000187     -0.000187      0.000000
      3.98141      5.09168      0.00000         0.000187     -0.000187      0.000000
      0.95705      2.06732      2.42144         0.000187     -0.000187      0.000000
      5.09168      3.98141      2.42144        -0.000187      0.000187      0.000000
      3.98141      0.95705      2.42144         0.000187      0.000187      0.000000
      2.06732      5.09168      2.42144        -0.000187     -0.000187      0.000000
 -----------------------------------------------------------------------------------
    total drift:                                0.000000      0.000000      0.000000


--------------------------------------------------------------------------------------------------------



  FREE ENERGIE OF THE ION-ELECTRON SYSTEM (eV)
  ---------------------------------------------------
  free  energy   TOTEN  =       -46.707196 eV

  energy  without entropy=      -46.704217  energy(sigma->0) =      -46.706203
 
 d Force =-0.6745955E-08[-0.665E-08,-0.684E-08]  d Energy = 0.3241676E-06-0.331E-06
 d Force = 0.9764076E-03[ 0.976E-03, 0.976E-03]  d Ewald  =-0.5082350E-01 0.518E-01


--------------------------------------------------------------------------------------------------------


    POTLOK:  cpu time    0.04: real time    0.03


--------------------------------------------------------------------------------------------------------




--------------------------------------------------------------------------------------------------------


  
 reached required accuracy - stopping structural energy minimisation
     LOOP+:  cpu time   17.43: real time   17.52
    4ORBIT:  cpu time    0.00: real time    0.00

 total amount of memory used by VASP on root node    55051. kBytes
========================================================================

   base      :      30000. kBytes
   nonlr-proj:       1844. kBytes
   fftplans  :       1168. kBytes
   grid      :       2458. kBytes
   one-center:        186. kBytes
   wavefun   :      19395. kBytes
 
  
  
 General timing and accounting informations for this job:
 ========================================================
  
                  Total CPU time used (sec):      202.140
                            User time (sec):      201.330
                          System time (sec):        0.810
                         Elapsed time (sec):      203.260
  
                   Maximum memory used (kb):       88244.
                   Average memory used (kb):           0.
  
                          Minor page faults:        22692
                          Major page faults:            0
                 Voluntary context switches:         1092
