 vasp.5.2.12 11Nov11 complex                                                    
  
 executed on             LinuxIFC date 2014.05.30  10:21:43
 running on    4 nodes
 distr:  one band on    1 nodes,    4 groups


--------------------------------------------------------------------------------------------------------


 INCAR:
 POTCAR:    PAW_PBE Cu 22Jun2005                  
 POTCAR:    PAW_PBE Al 04Jan2001                  
 POTCAR:    PAW_PBE Cu 22Jun2005                  
   VRHFIN =Cu: d10 p1                                                           
   LEXCH  = PE                                                                  
   EATOM  =  1390.9808 eV,  102.2342 Ry                                         
                                                                                
   TITEL  = PAW_PBE Cu 22Jun2005                                                
   LULTRA =        F    use ultrasoft PP ?                                      
   IUNSCR =        1    unscreen: 0-lin 1-nonlin 2-no                           
   RPACOR =    2.000    partial core radius                                     
   POMASS =   63.546; ZVAL   =   11.000    mass and valenz                      
   RCORE  =    2.300    outmost cutoff radius                                   
   RWIGS  =    2.200; RWIGS  =    1.164    wigner-seitz radius (au A)           
   ENMAX  =  295.446; ENMIN  =  221.585 eV                                      
   ICORE  =        3    local potential                                         
   LCOR   =        T    correct aug charges                                     
   LPAW   =        T    paw PP                                                  
   EAUG   =  586.980                                                            
   DEXC   =    0.000                                                            
   RMAX   =    2.344    core radius for proj-oper                               
   RAUG   =    1.300    factor for augmentation sphere                          
   RDEP   =    2.302    radius for radial grids                                 
   RDEPT  =    1.771    core radius for aug-charge                              
                                                                                
   Atomic configuration                                                         
    9 entries                                                                   
     n  l   j            E        occ.                                          
     1  0  0.50     -8850.2468   2.0000                                         
     2  0  0.50     -1062.3498   2.0000                                         
     2  1  1.50      -916.8226   6.0000                                         
     3  0  0.50      -114.6929   2.0000                                         
     3  1  1.50       -72.1325   6.0000                                         
     3  2  2.50        -5.0394  10.0000                                         
     4  0  0.50        -4.6097   1.0000                                         
     4  1  0.50        -4.0817   0.0000                                         
     4  3  2.50        -1.3606   0.0000                                         
   Description                                                                  
     l       E           TYP  RCUT    TYP  RCUT                                 
     2     -5.0393973     23  2.200                                             
     2     10.8846608     23  2.200                                             
     0     -4.6097109     23  2.200                                             
     0      8.2520465     23  2.200                                             
     1     -2.7211652     23  2.200                                             
     1     21.7055443     23  2.200                                             
     3      2.7211652     23  2.300                                             
  local pseudopotential read in
  partial core-charges read in
  partial kinetic energy density read in
  atomic valenz-charges read in
  non local Contribution for L=           2  read in
    real space projection operators read in
  non local Contribution for L=           2  read in
    real space projection operators read in
  non local Contribution for L=           0  read in
    real space projection operators read in
  non local Contribution for L=           0  read in
    real space projection operators read in
  non local Contribution for L=           1  read in
    real space projection operators read in
  non local Contribution for L=           1  read in
    real space projection operators read in
    PAW grid and wavefunctions read in
 
   number of l-projection  operators is LMAX  =           6
   number of lm-projection operators is LMMAX =          18
 
 POTCAR:    PAW_PBE Al 04Jan2001                  
   VRHFIN =Al: s2p1                                                             
   LEXCH  = PE                                                                  
   EATOM  =    53.5387 eV,    3.9350 Ry                                         
                                                                                
   TITEL  = PAW_PBE Al 04Jan2001                                                
   LULTRA =        F    use ultrasoft PP ?                                      
   IUNSCR =        1    unscreen: 0-lin 1-nonlin 2-no                           
   RPACOR =    1.500    partial core radius                                     
   POMASS =   26.981; ZVAL   =    3.000    mass and valenz                      
   RCORE  =    1.900    outmost cutoff radius                                   
   RWIGS  =    2.650; RWIGS  =    1.402    wigner-seitz radius (au A)           
   ENMAX  =  240.300; ENMIN  =  180.225 eV                                      
   ICORE  =        2    local potential                                         
   LCOR   =        T    correct aug charges                                     
   LPAW   =        T    paw PP                                                  
   EAUG   =  291.052                                                            
   DEXC   =    0.000                                                            
   RMAX   =    1.939    core radius for proj-oper                               
   RAUG   =    1.300    factor for augmentation sphere                          
   RDEP   =    1.966    radius for radial grids                                 
   RDEPT  =    1.856    core radius for aug-charge                              
                                                                                
   Atomic configuration                                                         
    6 entries                                                                   
     n  l   j            E        occ.                                          
     1  0  0.50     -1511.1048   2.0000                                         
     2  0  0.50      -108.1629   2.0000                                         
     2  1  1.50       -69.6402   6.0000                                         
     3  0  0.50        -7.7528   2.0000                                         
     3  1  1.50        -2.7121   1.0000                                         
     3  2  2.50        -2.7212   0.0000                                         
   Description                                                                  
     l       E           TYP  RCUT    TYP  RCUT                                 
     0     -7.7528455     23  1.900                                             
     0     -3.3096929     23  1.900                                             
     1     -2.7120682     23  1.900                                             
     1     13.6058260     23  1.900                                             
     2     -2.7211652      7  1.900                                             
  local pseudopotential read in
  partial core-charges read in
  partial kinetic energy density read in
  atomic valenz-charges read in
  non local Contribution for L=           0  read in
    real space projection operators read in
  non local Contribution for L=           0  read in
    real space projection operators read in
  non local Contribution for L=           1  read in
    real space projection operators read in
  non local Contribution for L=           1  read in
    real space projection operators read in
    PAW grid and wavefunctions read in
 
   number of l-projection  operators is LMAX  =           4
   number of lm-projection operators is LMMAX =           8
 
  PAW_PBE Cu 22Jun2005                  :
 energy of atom  1       EATOM=-1390.9808
 kinetic energy error for atom=    0.0452 (will be added to EATOM!!)
  PAW_PBE Al 04Jan2001                  :
 energy of atom  2       EATOM=  -53.5387
 kinetic energy error for atom=    0.0012 (will be added to EATOM!!)
 
 
 POSCAR: XYZ: Cu2Al3                             
  positions in direct lattice
  velocities in cartesian coordinates
 exchange correlation table for  LEXCH =        8
   RHO(1)=    0.500       N(1)  =     2000
   RHO(2)=  100.500       N(2)  =     4000
 


--------------------------------------------------------------------------------------------------------


 ion  position               nearest neighbor table
   1  0.333  0.667  0.841-   4 2.46   3 2.51   3 2.51   3 2.51   4 2.57   5 2.57   5 2.57   5 2.57

   2  0.667  0.333  0.159-   5 2.46   3 2.51   3 2.51   3 2.51   5 2.57   4 2.57   4 2.57   4 2.57

   3  0.000  0.000  0.000-   1 2.51   2 2.51   2 2.51   1 2.51   2 2.51   1 2.51   4 2.96   5 2.96
                             5 2.96   4 2.96   4 2.96   5 2.96
   4  0.333  0.667  0.351-   1 2.46   1 2.57   2 2.57   2 2.57   2 2.57   5 2.81   5 2.81   5 2.81
                             3 2.96   3 2.96   3 2.96
   5  0.667  0.333  0.649-   2 2.46   2 2.57   1 2.57   1 2.57   1 2.57   4 2.81   4 2.81   4 2.81
                             3 2.96   3 2.96   3 2.96
 
  LATTYP: Found a hexagonal cell.
 ALAT       =     4.1253394222
 C/A-ratio  =     1.2177949358
  
  Lattice vectors:
  
 A1 = (   4.1253394222,   0.0000000000,   0.0000000000)
 A2 = (  -2.0626697111,   3.5726487389,   0.0000000000)
 A3 = (   0.0000000000,   0.0000000000,   5.0238174568)
 Subroutine PRICEL returns:
 Original cell was already a primitive cell.
 

Analysis of symmetry for initial positions (statically):

 Routine SETGRP: Setting up the symmetry group for a 
 hexagonal supercell.


 Subroutine GETGRP returns: Found 12 space group operations
 (whereof 12 operations were pure point group operations)
 out of a pool of 24 trial point group operations.


The static configuration has the point symmetry D_3d.

Analysis of symmetry for dynamics (positions and initial velocities):

 Subroutine DYNSYM returns: Found 12 space group operations
 (whereof 12 operations were pure point group operations)
 out of a pool of 12 trial space group operations
 (whereof 12 operations were pure point group operations)
 and found also     1 'primitive' translations


The dynamic configuration has the point symmetry D_3d.
 
 
 KPOINTS: Automatic mesh                          

Automatic generation of k-mesh.
 
 Subroutine IBZKPT returns following result:
 ===========================================
 
 Found    131 irreducible k-points:
 
 Following reciprocal coordinates:
            Coordinates               Weight
  0.000000  0.000000  0.000000      1.000000
  0.083333  0.000000  0.000000      6.000000
  0.166667  0.000000  0.000000      6.000000
  0.250000  0.000000  0.000000      6.000000
  0.333333  0.000000  0.000000      6.000000
  0.416667  0.000000  0.000000      6.000000
  0.500000  0.000000  0.000000      3.000000
  0.083333  0.083333  0.000000      6.000000
  0.166667  0.083333  0.000000     12.000000
  0.250000  0.083333  0.000000     12.000000
  0.333333  0.083333  0.000000     12.000000
  0.416667  0.083333  0.000000     12.000000
  0.166667  0.166667  0.000000      6.000000
  0.250000  0.166667  0.000000     12.000000
  0.333333  0.166667  0.000000     12.000000
  0.416667  0.166667  0.000000      6.000000
  0.250000  0.250000  0.000000      6.000000
  0.333333  0.250000  0.000000     12.000000
  0.333333  0.333333  0.000000      2.000000
  0.000000  0.000000  0.125000      2.000000
  0.083333  0.000000  0.125000      6.000000
  0.166667  0.000000  0.125000      6.000000
  0.250000  0.000000  0.125000      6.000000
  0.333333  0.000000  0.125000      6.000000
  0.416667  0.000000  0.125000      6.000000
  0.500000  0.000000  0.125000      6.000000
 -0.416667  0.000000  0.125000      6.000000
 -0.333333  0.000000  0.125000      6.000000
 -0.250000  0.000000  0.125000      6.000000
 -0.166667  0.000000  0.125000      6.000000
 -0.083333  0.000000  0.125000      6.000000
  0.083333  0.083333  0.125000     12.000000
  0.166667  0.083333  0.125000     12.000000
  0.250000  0.083333  0.125000     12.000000
  0.333333  0.083333  0.125000     12.000000
  0.416667  0.083333  0.125000     12.000000
  0.500000  0.083333  0.125000     12.000000
 -0.416667  0.083333  0.125000     12.000000
 -0.333333  0.083333  0.125000     12.000000
 -0.250000  0.083333  0.125000     12.000000
  0.166667  0.166667  0.125000     12.000000
  0.250000  0.166667  0.125000     12.000000
  0.333333  0.166667  0.125000     12.000000
  0.416667  0.166667  0.125000     12.000000
  0.500000  0.166667  0.125000     12.000000
 -0.416667  0.166667  0.125000     12.000000
  0.250000  0.250000  0.125000     12.000000
  0.333333  0.250000  0.125000     12.000000
  0.416667  0.250000  0.125000     12.000000
  0.333333  0.333333  0.125000      4.000000
  0.000000  0.000000  0.250000      2.000000
  0.083333  0.000000  0.250000      6.000000
  0.166667  0.000000  0.250000      6.000000
  0.250000  0.000000  0.250000      6.000000
  0.333333  0.000000  0.250000      6.000000
  0.416667  0.000000  0.250000      6.000000
  0.500000  0.000000  0.250000      6.000000
 -0.416667  0.000000  0.250000      6.000000
 -0.333333  0.000000  0.250000      6.000000
 -0.250000  0.000000  0.250000      6.000000
 -0.166667  0.000000  0.250000      6.000000
 -0.083333  0.000000  0.250000      6.000000
  0.083333  0.083333  0.250000     12.000000
  0.166667  0.083333  0.250000     12.000000
  0.250000  0.083333  0.250000     12.000000
  0.333333  0.083333  0.250000     12.000000
  0.416667  0.083333  0.250000     12.000000
  0.500000  0.083333  0.250000     12.000000
 -0.416667  0.083333  0.250000     12.000000
 -0.333333  0.083333  0.250000     12.000000
 -0.250000  0.083333  0.250000     12.000000
  0.166667  0.166667  0.250000     12.000000
  0.250000  0.166667  0.250000     12.000000
  0.333333  0.166667  0.250000     12.000000
  0.416667  0.166667  0.250000     12.000000
  0.500000  0.166667  0.250000     12.000000
 -0.416667  0.166667  0.250000     12.000000
  0.250000  0.250000  0.250000     12.000000
  0.333333  0.250000  0.250000     12.000000
  0.416667  0.250000  0.250000     12.000000
  0.333333  0.333333  0.250000      4.000000
  0.000000  0.000000  0.375000      2.000000
  0.083333  0.000000  0.375000      6.000000
  0.166667  0.000000  0.375000      6.000000
  0.250000  0.000000  0.375000      6.000000
  0.333333  0.000000  0.375000      6.000000
  0.416667  0.000000  0.375000      6.000000
  0.500000  0.000000  0.375000      6.000000
 -0.416667  0.000000  0.375000      6.000000
 -0.333333  0.000000  0.375000      6.000000
 -0.250000  0.000000  0.375000      6.000000
 -0.166667  0.000000  0.375000      6.000000
 -0.083333  0.000000  0.375000      6.000000
  0.083333  0.083333  0.375000     12.000000
  0.166667  0.083333  0.375000     12.000000
  0.250000  0.083333  0.375000     12.000000
  0.333333  0.083333  0.375000     12.000000
  0.416667  0.083333  0.375000     12.000000
  0.500000  0.083333  0.375000     12.000000
 -0.416667  0.083333  0.375000     12.000000
 -0.333333  0.083333  0.375000     12.000000
 -0.250000  0.083333  0.375000     12.000000
  0.166667  0.166667  0.375000     12.000000
  0.250000  0.166667  0.375000     12.000000
  0.333333  0.166667  0.375000     12.000000
  0.416667  0.166667  0.375000     12.000000
  0.500000  0.166667  0.375000     12.000000
 -0.416667  0.166667  0.375000     12.000000
  0.250000  0.250000  0.375000     12.000000
  0.333333  0.250000  0.375000     12.000000
  0.416667  0.250000  0.375000     12.000000
  0.333333  0.333333  0.375000      4.000000
  0.000000  0.000000  0.500000      1.000000
  0.083333  0.000000  0.500000      6.000000
  0.166667  0.000000  0.500000      6.000000
  0.250000  0.000000  0.500000      6.000000
  0.333333  0.000000  0.500000      6.000000
  0.416667  0.000000  0.500000      6.000000
  0.500000  0.000000  0.500000      3.000000
  0.083333  0.083333  0.500000      6.000000
  0.166667  0.083333  0.500000     12.000000
  0.250000  0.083333  0.500000     12.000000
  0.333333  0.083333  0.500000     12.000000
  0.416667  0.083333  0.500000     12.000000
  0.166667  0.166667  0.500000      6.000000
  0.250000  0.166667  0.500000     12.000000
  0.333333  0.166667  0.500000     12.000000
  0.416667  0.166667  0.500000      6.000000
  0.250000  0.250000  0.500000      6.000000
  0.333333  0.250000  0.500000     12.000000
  0.333333  0.333333  0.500000      2.000000
 
 Following cartesian coordinates:
            Coordinates               Weight
  0.000000  0.000000  0.000000      1.000000
  0.020200  0.011663  0.000000      6.000000
  0.040401  0.023325  0.000000      6.000000
  0.060601  0.034988  0.000000      6.000000
  0.080801  0.046651  0.000000      6.000000
  0.101002  0.058313  0.000000      6.000000
  0.121202  0.069976  0.000000      3.000000
  0.020200  0.034988  0.000000      6.000000
  0.040401  0.046651  0.000000     12.000000
  0.060601  0.058313  0.000000     12.000000
  0.080801  0.069976  0.000000     12.000000
  0.101002  0.081639  0.000000     12.000000
  0.040401  0.069976  0.000000      6.000000
  0.060601  0.081639  0.000000     12.000000
  0.080801  0.093301  0.000000     12.000000
  0.101002  0.104964  0.000000      6.000000
  0.060601  0.104964  0.000000      6.000000
  0.080801  0.116627  0.000000     12.000000
  0.080801  0.139952  0.000000      2.000000
  0.000000  0.000000  0.024881      2.000000
  0.020200  0.011663  0.024881      6.000000
  0.040401  0.023325  0.024881      6.000000
  0.060601  0.034988  0.024881      6.000000
  0.080801  0.046651  0.024881      6.000000
  0.101002  0.058313  0.024881      6.000000
  0.121202  0.069976  0.024881      6.000000
 -0.101002 -0.058313  0.024881      6.000000
 -0.080801 -0.046651  0.024881      6.000000
 -0.060601 -0.034988  0.024881      6.000000
 -0.040401 -0.023325  0.024881      6.000000
 -0.020200 -0.011663  0.024881      6.000000
  0.020200  0.034988  0.024881     12.000000
  0.040401  0.046651  0.024881     12.000000
  0.060601  0.058313  0.024881     12.000000
  0.080801  0.069976  0.024881     12.000000
  0.101002  0.081639  0.024881     12.000000
  0.121202  0.093301  0.024881     12.000000
 -0.101002 -0.034988  0.024881     12.000000
 -0.080801 -0.023325  0.024881     12.000000
 -0.060601 -0.011663  0.024881     12.000000
  0.040401  0.069976  0.024881     12.000000
  0.060601  0.081639  0.024881     12.000000
  0.080801  0.093301  0.024881     12.000000
  0.101002  0.104964  0.024881     12.000000
  0.121202  0.116627  0.024881     12.000000
 -0.101002 -0.011663  0.024881     12.000000
  0.060601  0.104964  0.024881     12.000000
  0.080801  0.116627  0.024881     12.000000
  0.101002  0.128290  0.024881     12.000000
  0.080801  0.139952  0.024881      4.000000
  0.000000  0.000000  0.049763      2.000000
  0.020200  0.011663  0.049763      6.000000
  0.040401  0.023325  0.049763      6.000000
  0.060601  0.034988  0.049763      6.000000
  0.080801  0.046651  0.049763      6.000000
  0.101002  0.058313  0.049763      6.000000
  0.121202  0.069976  0.049763      6.000000
 -0.101002 -0.058313  0.049763      6.000000
 -0.080801 -0.046651  0.049763      6.000000
 -0.060601 -0.034988  0.049763      6.000000
 -0.040401 -0.023325  0.049763      6.000000
 -0.020200 -0.011663  0.049763      6.000000
  0.020200  0.034988  0.049763     12.000000
  0.040401  0.046651  0.049763     12.000000
  0.060601  0.058313  0.049763     12.000000
  0.080801  0.069976  0.049763     12.000000
  0.101002  0.081639  0.049763     12.000000
  0.121202  0.093301  0.049763     12.000000
 -0.101002 -0.034988  0.049763     12.000000
 -0.080801 -0.023325  0.049763     12.000000
 -0.060601 -0.011663  0.049763     12.000000
  0.040401  0.069976  0.049763     12.000000
  0.060601  0.081639  0.049763     12.000000
  0.080801  0.093301  0.049763     12.000000
  0.101002  0.104964  0.049763     12.000000
  0.121202  0.116627  0.049763     12.000000
 -0.101002 -0.011663  0.049763     12.000000
  0.060601  0.104964  0.049763     12.000000
  0.080801  0.116627  0.049763     12.000000
  0.101002  0.128290  0.049763     12.000000
  0.080801  0.139952  0.049763      4.000000
  0.000000  0.000000  0.074644      2.000000
  0.020200  0.011663  0.074644      6.000000
  0.040401  0.023325  0.074644      6.000000
  0.060601  0.034988  0.074644      6.000000
  0.080801  0.046651  0.074644      6.000000
  0.101002  0.058313  0.074644      6.000000
  0.121202  0.069976  0.074644      6.000000
 -0.101002 -0.058313  0.074644      6.000000
 -0.080801 -0.046651  0.074644      6.000000
 -0.060601 -0.034988  0.074644      6.000000
 -0.040401 -0.023325  0.074644      6.000000
 -0.020200 -0.011663  0.074644      6.000000
  0.020200  0.034988  0.074644     12.000000
  0.040401  0.046651  0.074644     12.000000
  0.060601  0.058313  0.074644     12.000000
  0.080801  0.069976  0.074644     12.000000
  0.101002  0.081639  0.074644     12.000000
  0.121202  0.093301  0.074644     12.000000
 -0.101002 -0.034988  0.074644     12.000000
 -0.080801 -0.023325  0.074644     12.000000
 -0.060601 -0.011663  0.074644     12.000000
  0.040401  0.069976  0.074644     12.000000
  0.060601  0.081639  0.074644     12.000000
  0.080801  0.093301  0.074644     12.000000
  0.101002  0.104964  0.074644     12.000000
  0.121202  0.116627  0.074644     12.000000
 -0.101002 -0.011663  0.074644     12.000000
  0.060601  0.104964  0.074644     12.000000
  0.080801  0.116627  0.074644     12.000000
  0.101002  0.128290  0.074644     12.000000
  0.080801  0.139952  0.074644      4.000000
  0.000000  0.000000  0.099526      1.000000
  0.020200  0.011663  0.099526      6.000000
  0.040401  0.023325  0.099526      6.000000
  0.060601  0.034988  0.099526      6.000000
  0.080801  0.046651  0.099526      6.000000
  0.101002  0.058313  0.099526      6.000000
  0.121202  0.069976  0.099526      3.000000
  0.020200  0.034988  0.099526      6.000000
  0.040401  0.046651  0.099526     12.000000
  0.060601  0.058313  0.099526     12.000000
  0.080801  0.069976  0.099526     12.000000
  0.101002  0.081639  0.099526     12.000000
  0.040401  0.069976  0.099526      6.000000
  0.060601  0.081639  0.099526     12.000000
  0.080801  0.093301  0.099526     12.000000
  0.101002  0.104964  0.099526      6.000000
  0.060601  0.104964  0.099526      6.000000
  0.080801  0.116627  0.099526     12.000000
  0.080801  0.139952  0.099526      2.000000
 


--------------------------------------------------------------------------------------------------------




 Dimension of arrays:
   k-points           NKPTS =    131   k-points in BZ     NKDIM =    131   number of bands    NBANDS=     20
   number of dos      NEDOS =    301   number of ions     NIONS =      5
   non local maximal  LDIM  =      6   non local SUM 2l+1 LMDIM =     18
   total plane-waves  NPLWV =   7776
   max r-space proj   IRMAX =      1   max aug-charges    IRDMAX=   4286
   dimension x,y,z NGX =    18 NGY =   18 NGZ =   24
   dimension x,y,z NGXF=    36 NGYF=   36 NGZF=   48
   support grid    NGXF=    36 NGYF=   36 NGZF=   48
   ions per type =               2   3
 NGX,Y,Z   is equivalent  to a cutoff of   7.25,  7.25,  7.94 a.u.
 NGXF,Y,Z  is equivalent  to a cutoff of  14.51, 14.51, 15.88 a.u.


 I would recommend the setting:
   dimension x,y,z NGX =    17 NGY =   17 NGZ =   21
 SYSTEM =  Al3Cu2                                  
 POSCAR =  XYZ: Cu2Al3                             

 Startparameter for this run:
   NWRITE =      2    write-flag & timer
   PREC   = normal    normal or accurate (medium, high low for compatibility)
   ISTART =      0    job   : 0-new  1-cont  2-samecut
   ICHARG =      2    charge: 1-file 2-atom 10-const
   ISPIN  =      1    spin polarized calculation?
   LNONCOLLINEAR =      F non collinear calculations
   LSORBIT =      F    spin-orbit coupling
   INIWAV =      1    electr: 0-lowe 1-rand  2-diag
   LASPH  =      F    aspherical Exc in radial PAW
   METAGGA=      F    non-selfconsistent MetaGGA calc.

 Electronic Relaxation 1
   ENCUT  =  295.4 eV  21.71 Ry    4.66 a.u.   5.78  5.78  7.04*2*pi/ulx,y,z
   ENINI  =  295.4     initial cutoff
   ENAUG  =  587.0 eV  augmentation charge cutoff
   NELM   =     40;   NELMIN=  2; NELMDL=  0     # of ELM steps 
   EDIFF  = 0.1E-05   stopping-criterion for ELM
   LREAL  =      F    real-space projection
   NLSPLINE    = F    spline interpolate recip. space projectors
   LCOMPAT=      F    compatible to vasp.4.4
   GGA_COMPAT  = T    GGA compatible to vasp.4.4-vasp.4.6
   LMAXPAW     = -100 max onsite density
   LMAXMIX     =    2 max onsite mixed and CHGCAR
   VOSKOWN=      0    Vosko Wilk Nusair interpolation
   ROPT   =    0.00000   0.00000
 Ionic relaxation
   EDIFFG = 0.1E-04   stopping-criterion for IOM
   NSW    =     10    number of steps for IOM
   NBLOCK =      1;   KBLOCK =     10    inner block; outer block 
   IBRION =      2    ionic relax: 0-MD 1-quasi-New 2-CG
   NFREE  =      1    steps in history (QN), initial steepest desc. (CG)
   ISIF   =      3    stress and relaxation
   IWAVPR =     11    prediction:  0-non 1-charg 2-wave 3-comb
   ISYM   =      2    0-nonsym 1-usesym 2-fastsym
   LCORR  =      T    Harris-Foulkes like correction to forces

   POTIM  = 0.2500    time-step for ionic-motion
   TEIN   =    0.0    initial temperature
   TEBEG  =    0.0;   TEEND  =   0.0 temperature during run
   SMASS  =  -3.00    Nose mass-parameter (am)
   estimated Nose-frequenzy (Omega)   =  0.10E-29 period in steps =****** mass=  -0.389E-27a.u.
   SCALEE = 1.0000    scale energy and forces
   NPACO  =    256;   APACO  = 16.0  distance and # of slots for P.C.
   PSTRESS=    0.0 pullay stress

  Mass of Ions in am
   POMASS =  63.55 26.98
  Ionic Valenz
   ZVAL   =  11.00  3.00
  Atomic Wigner-Seitz radii
   RWIGS  =  -1.00 -1.00
  virtual crystal weights 
   VCA    =   1.00  1.00
   NELECT =      31.0000    total number of electrons
   NUPDOWN=      -1.0000    fix difference up-down

 DOS related values:
   EMIN   =  10.00;   EMAX   =-10.00  energy-range for DOS
   EFERMI =   0.00
   ISMEAR =     1;   SIGMA  =   0.20  broadening in eV -4-tet -1-fermi 0-gaus

 Electronic relaxation 2 (details)
   IALGO  =     68    algorithm
   LDIAG  =      T    sub-space diagonalisation (order eigenvalues)
   LSUBROT=      T    optimize rotation matrix (better conditioning)
   TURBO    =      0    0=normal 1=particle mesh
   IRESTART =      0    0=no restart 2=restart with 2 vectors
   NREBOOT  =      0    no. of reboots
   NMIN     =      0    reboot dimension
   EREF     =   0.00    reference energy to select bands
   IMIX   =      4    mixing-type and parameters
     AMIX     =   0.40;   BMIX     =  1.00
     AMIX_MAG =   1.60;   BMIX_MAG =  1.00
     AMIN     =   0.10
     WC   =   100.;   INIMIX=   1;  MIXPRE=   1

 Intra band minimization:
   WEIMIN = 0.0010     energy-eigenvalue tresh-hold
   EBREAK =  0.12E-07  absolut break condition
   DEPER  =   0.30     relativ break condition  

   TIME   =   0.40     timestep for ELM

  volume/ion in A,a.u.               =      14.81        99.93
  Fermi-wavevector in a.u.,A,eV,Ry     =   1.224712  2.314371 20.407656  1.499920
  Thomas-Fermi vector in A             =   2.359777
 
 Write flags
   LWAVE  =      F    write WAVECAR
   LCHARG =      F    write CHGCAR
   LVTOT  =      F    write LOCPOT, total local potential
   LVHAR  =      F    write LOCPOT, Hartree potential only
   LELF   =      F    write electronic localiz. function (ELF)
   LORBIT =      0    0 simple, 1 ext, 2 COOP (PROOUT)


 Dipole corrections
   LMONO  =      F    monopole corrections only (constant potential shift)
   LDIPOL =      F    correct potential (dipole corrections)
   IDIPOL =      0    1-x, 2-y, 3-z, 4-all directions 
   EPSILON=  1.0000000 bulk dielectric constant

 Exchange correlation treatment:
   GGA     =    --    GGA type
   LEXCH   =     8    internal setting for exchange type
   VOSKOWN=      0    Vosko Wilk Nusair interpolation
   LHFCALC =     F    Hartree Fock is set to
   LHFONE  =     F    Hartree Fock one center treatment
   AEXX    =    0.0000 exact exchange contribution

 Linear response parameters
   LEPSILON=     F    determine dielectric tensor
   LRPA    =     F    only Hartree local field effects (RPA)
   LNABLA  =     F    use nabla operator in PAW spheres
   LVEL    =     F    velocity operator in full k-point grid
   LINTERFAST=   F  fast interpolation
   KINTER  =     0    interpolate to denser k-point grid
   CSHIFT  =0.1000    complex shift for real part using Kramers Kronig
   OMEGAMAX=  -1.0    maximum frequency
   RTIME   =    0.100 relaxation time in fs

 Orbital magnetization related:
   ORBITALMAG=     F  switch on orbital magnetization
   LCHIMAG   =     F  perturbation theory with respect to B field
   DQ        =  0.001000  dq finite difference perturbation B field



--------------------------------------------------------------------------------------------------------


 conjugate gradient relaxation of ions
 charge density and potential will be updated during run
 non-spin polarized calculation
 RMM-DIIS sequential band-by-band and
  variant of blocked Davidson during initial phase
 perform sub-space diagonalisation
    before iterative eigenvector-optimisation
 modified Broyden-mixing scheme, WC =      100.0
 initial mixing is a Kerker type mixing with AMIX =  0.4000 and BMIX =      1.0000
 Hartree-type preconditioning will be used
 using additional bands            4
 reciprocal scheme for non local part
 use partial core corrections
 calculate Harris-corrections to forces 
   (improved forces if not selfconsistent)
 use gradient corrections 
 use of overlap-Matrix (Vanderbilt PP)
 Methfessel and Paxton  Order N= 1 SIGMA  =   0.20


--------------------------------------------------------------------------------------------------------


  energy-cutoff  :      295.45
  volume of cell :       74.04
      direct lattice vectors                 reciprocal lattice vectors
     4.125339422  0.000000000  0.000000000     0.242404296  0.139952186  0.000000000
    -2.062669711  3.572648739  0.000000000     0.000000000  0.279904372  0.000000000
     0.000000000  0.000000000  5.023817457     0.000000000  0.000000000  0.199051818

  length of vectors
     4.125339422  4.125339422  5.023817457     0.279904372  0.279904372  0.199051818


 
 k-points in units of 2pi/SCALE and weight: Automatic mesh                          
   0.00000000  0.00000000  0.00000000       0.001
   0.02020036  0.01166268  0.00000000       0.005
   0.04040072  0.02332536  0.00000000       0.005
   0.06060107  0.03498805  0.00000000       0.005
   0.08080143  0.04665073  0.00000000       0.005
   0.10100179  0.05831341  0.00000000       0.005
   0.12120215  0.06997609  0.00000000       0.003
   0.02020036  0.03498805  0.00000000       0.005
   0.04040072  0.04665073  0.00000000       0.010
   0.06060107  0.05831341  0.00000000       0.010
   0.08080143  0.06997609  0.00000000       0.010
   0.10100179  0.08163878  0.00000000       0.010
   0.04040072  0.06997609  0.00000000       0.005
   0.06060107  0.08163878  0.00000000       0.010
   0.08080143  0.09330146  0.00000000       0.010
   0.10100179  0.10496414  0.00000000       0.005
   0.06060107  0.10496414  0.00000000       0.005
   0.08080143  0.11662682  0.00000000       0.010
   0.08080143  0.13995219  0.00000000       0.002
   0.00000000  0.00000000  0.02488148       0.002
   0.02020036  0.01166268  0.02488148       0.005
   0.04040072  0.02332536  0.02488148       0.005
   0.06060107  0.03498805  0.02488148       0.005
   0.08080143  0.04665073  0.02488148       0.005
   0.10100179  0.05831341  0.02488148       0.005
   0.12120215  0.06997609  0.02488148       0.005
  -0.10100179 -0.05831341  0.02488148       0.005
  -0.08080143 -0.04665073  0.02488148       0.005
  -0.06060107 -0.03498805  0.02488148       0.005
  -0.04040072 -0.02332536  0.02488148       0.005
  -0.02020036 -0.01166268  0.02488148       0.005
   0.02020036  0.03498805  0.02488148       0.010
   0.04040072  0.04665073  0.02488148       0.010
   0.06060107  0.05831341  0.02488148       0.010
   0.08080143  0.06997609  0.02488148       0.010
   0.10100179  0.08163878  0.02488148       0.010
   0.12120215  0.09330146  0.02488148       0.010
  -0.10100179 -0.03498805  0.02488148       0.010
  -0.08080143 -0.02332536  0.02488148       0.010
  -0.06060107 -0.01166268  0.02488148       0.010
   0.04040072  0.06997609  0.02488148       0.010
   0.06060107  0.08163878  0.02488148       0.010
   0.08080143  0.09330146  0.02488148       0.010
   0.10100179  0.10496414  0.02488148       0.010
   0.12120215  0.11662682  0.02488148       0.010
  -0.10100179 -0.01166268  0.02488148       0.010
   0.06060107  0.10496414  0.02488148       0.010
   0.08080143  0.11662682  0.02488148       0.010
   0.10100179  0.12828950  0.02488148       0.010
   0.08080143  0.13995219  0.02488148       0.003
   0.00000000  0.00000000  0.04976295       0.002
   0.02020036  0.01166268  0.04976295       0.005
   0.04040072  0.02332536  0.04976295       0.005
   0.06060107  0.03498805  0.04976295       0.005
   0.08080143  0.04665073  0.04976295       0.005
   0.10100179  0.05831341  0.04976295       0.005
   0.12120215  0.06997609  0.04976295       0.005
  -0.10100179 -0.05831341  0.04976295       0.005
  -0.08080143 -0.04665073  0.04976295       0.005
  -0.06060107 -0.03498805  0.04976295       0.005
  -0.04040072 -0.02332536  0.04976295       0.005
  -0.02020036 -0.01166268  0.04976295       0.005
   0.02020036  0.03498805  0.04976295       0.010
   0.04040072  0.04665073  0.04976295       0.010
   0.06060107  0.05831341  0.04976295       0.010
   0.08080143  0.06997609  0.04976295       0.010
   0.10100179  0.08163878  0.04976295       0.010
   0.12120215  0.09330146  0.04976295       0.010
  -0.10100179 -0.03498805  0.04976295       0.010
  -0.08080143 -0.02332536  0.04976295       0.010
  -0.06060107 -0.01166268  0.04976295       0.010
   0.04040072  0.06997609  0.04976295       0.010
   0.06060107  0.08163878  0.04976295       0.010
   0.08080143  0.09330146  0.04976295       0.010
   0.10100179  0.10496414  0.04976295       0.010
   0.12120215  0.11662682  0.04976295       0.010
  -0.10100179 -0.01166268  0.04976295       0.010
   0.06060107  0.10496414  0.04976295       0.010
   0.08080143  0.11662682  0.04976295       0.010
   0.10100179  0.12828950  0.04976295       0.010
   0.08080143  0.13995219  0.04976295       0.003
   0.00000000  0.00000000  0.07464443       0.002
   0.02020036  0.01166268  0.07464443       0.005
   0.04040072  0.02332536  0.07464443       0.005
   0.06060107  0.03498805  0.07464443       0.005
   0.08080143  0.04665073  0.07464443       0.005
   0.10100179  0.05831341  0.07464443       0.005
   0.12120215  0.06997609  0.07464443       0.005
  -0.10100179 -0.05831341  0.07464443       0.005
  -0.08080143 -0.04665073  0.07464443       0.005
  -0.06060107 -0.03498805  0.07464443       0.005
  -0.04040072 -0.02332536  0.07464443       0.005
  -0.02020036 -0.01166268  0.07464443       0.005
   0.02020036  0.03498805  0.07464443       0.010
   0.04040072  0.04665073  0.07464443       0.010
   0.06060107  0.05831341  0.07464443       0.010
   0.08080143  0.06997609  0.07464443       0.010
   0.10100179  0.08163878  0.07464443       0.010
   0.12120215  0.09330146  0.07464443       0.010
  -0.10100179 -0.03498805  0.07464443       0.010
  -0.08080143 -0.02332536  0.07464443       0.010
  -0.06060107 -0.01166268  0.07464443       0.010
   0.04040072  0.06997609  0.07464443       0.010
   0.06060107  0.08163878  0.07464443       0.010
   0.08080143  0.09330146  0.07464443       0.010
   0.10100179  0.10496414  0.07464443       0.010
   0.12120215  0.11662682  0.07464443       0.010
  -0.10100179 -0.01166268  0.07464443       0.010
   0.06060107  0.10496414  0.07464443       0.010
   0.08080143  0.11662682  0.07464443       0.010
   0.10100179  0.12828950  0.07464443       0.010
   0.08080143  0.13995219  0.07464443       0.003
   0.00000000  0.00000000  0.09952591       0.001
   0.02020036  0.01166268  0.09952591       0.005
   0.04040072  0.02332536  0.09952591       0.005
   0.06060107  0.03498805  0.09952591       0.005
   0.08080143  0.04665073  0.09952591       0.005
   0.10100179  0.05831341  0.09952591       0.005
   0.12120215  0.06997609  0.09952591       0.003
   0.02020036  0.03498805  0.09952591       0.005
   0.04040072  0.04665073  0.09952591       0.010
   0.06060107  0.05831341  0.09952591       0.010
   0.08080143  0.06997609  0.09952591       0.010
   0.10100179  0.08163878  0.09952591       0.010
   0.04040072  0.06997609  0.09952591       0.005
   0.06060107  0.08163878  0.09952591       0.010
   0.08080143  0.09330146  0.09952591       0.010
   0.10100179  0.10496414  0.09952591       0.005
   0.06060107  0.10496414  0.09952591       0.005
   0.08080143  0.11662682  0.09952591       0.010
   0.08080143  0.13995219  0.09952591       0.002
 
 k-points in reciprocal lattice and weights: Automatic mesh                          
   0.00000000  0.00000000  0.00000000       0.001
   0.08333333  0.00000000  0.00000000       0.005
   0.16666667  0.00000000  0.00000000       0.005
   0.25000000  0.00000000  0.00000000       0.005
   0.33333333  0.00000000  0.00000000       0.005
   0.41666667  0.00000000  0.00000000       0.005
   0.50000000  0.00000000  0.00000000       0.003
   0.08333333  0.08333333  0.00000000       0.005
   0.16666667  0.08333333  0.00000000       0.010
   0.25000000  0.08333333  0.00000000       0.010
   0.33333333  0.08333333  0.00000000       0.010
   0.41666667  0.08333333  0.00000000       0.010
   0.16666667  0.16666667  0.00000000       0.005
   0.25000000  0.16666667  0.00000000       0.010
   0.33333333  0.16666667  0.00000000       0.010
   0.41666667  0.16666667  0.00000000       0.005
   0.25000000  0.25000000  0.00000000       0.005
   0.33333333  0.25000000  0.00000000       0.010
   0.33333333  0.33333333  0.00000000       0.002
   0.00000000  0.00000000  0.12500000       0.002
   0.08333333  0.00000000  0.12500000       0.005
   0.16666667  0.00000000  0.12500000       0.005
   0.25000000  0.00000000  0.12500000       0.005
   0.33333333  0.00000000  0.12500000       0.005
   0.41666667  0.00000000  0.12500000       0.005
   0.50000000  0.00000000  0.12500000       0.005
  -0.41666667  0.00000000  0.12500000       0.005
  -0.33333333  0.00000000  0.12500000       0.005
  -0.25000000  0.00000000  0.12500000       0.005
  -0.16666667  0.00000000  0.12500000       0.005
  -0.08333333  0.00000000  0.12500000       0.005
   0.08333333  0.08333333  0.12500000       0.010
   0.16666667  0.08333333  0.12500000       0.010
   0.25000000  0.08333333  0.12500000       0.010
   0.33333333  0.08333333  0.12500000       0.010
   0.41666667  0.08333333  0.12500000       0.010
   0.50000000  0.08333333  0.12500000       0.010
  -0.41666667  0.08333333  0.12500000       0.010
  -0.33333333  0.08333333  0.12500000       0.010
  -0.25000000  0.08333333  0.12500000       0.010
   0.16666667  0.16666667  0.12500000       0.010
   0.25000000  0.16666667  0.12500000       0.010
   0.33333333  0.16666667  0.12500000       0.010
   0.41666667  0.16666667  0.12500000       0.010
   0.50000000  0.16666667  0.12500000       0.010
  -0.41666667  0.16666667  0.12500000       0.010
   0.25000000  0.25000000  0.12500000       0.010
   0.33333333  0.25000000  0.12500000       0.010
   0.41666667  0.25000000  0.12500000       0.010
   0.33333333  0.33333333  0.12500000       0.003
   0.00000000  0.00000000  0.25000000       0.002
   0.08333333  0.00000000  0.25000000       0.005
   0.16666667  0.00000000  0.25000000       0.005
   0.25000000  0.00000000  0.25000000       0.005
   0.33333333  0.00000000  0.25000000       0.005
   0.41666667  0.00000000  0.25000000       0.005
   0.50000000  0.00000000  0.25000000       0.005
  -0.41666667  0.00000000  0.25000000       0.005
  -0.33333333  0.00000000  0.25000000       0.005
  -0.25000000  0.00000000  0.25000000       0.005
  -0.16666667  0.00000000  0.25000000       0.005
  -0.08333333  0.00000000  0.25000000       0.005
   0.08333333  0.08333333  0.25000000       0.010
   0.16666667  0.08333333  0.25000000       0.010
   0.25000000  0.08333333  0.25000000       0.010
   0.33333333  0.08333333  0.25000000       0.010
   0.41666667  0.08333333  0.25000000       0.010
   0.50000000  0.08333333  0.25000000       0.010
  -0.41666667  0.08333333  0.25000000       0.010
  -0.33333333  0.08333333  0.25000000       0.010
  -0.25000000  0.08333333  0.25000000       0.010
   0.16666667  0.16666667  0.25000000       0.010
   0.25000000  0.16666667  0.25000000       0.010
   0.33333333  0.16666667  0.25000000       0.010
   0.41666667  0.16666667  0.25000000       0.010
   0.50000000  0.16666667  0.25000000       0.010
  -0.41666667  0.16666667  0.25000000       0.010
   0.25000000  0.25000000  0.25000000       0.010
   0.33333333  0.25000000  0.25000000       0.010
   0.41666667  0.25000000  0.25000000       0.010
   0.33333333  0.33333333  0.25000000       0.003
   0.00000000  0.00000000  0.37500000       0.002
   0.08333333  0.00000000  0.37500000       0.005
   0.16666667  0.00000000  0.37500000       0.005
   0.25000000  0.00000000  0.37500000       0.005
   0.33333333  0.00000000  0.37500000       0.005
   0.41666667  0.00000000  0.37500000       0.005
   0.50000000  0.00000000  0.37500000       0.005
  -0.41666667  0.00000000  0.37500000       0.005
  -0.33333333  0.00000000  0.37500000       0.005
  -0.25000000  0.00000000  0.37500000       0.005
  -0.16666667  0.00000000  0.37500000       0.005
  -0.08333333  0.00000000  0.37500000       0.005
   0.08333333  0.08333333  0.37500000       0.010
   0.16666667  0.08333333  0.37500000       0.010
   0.25000000  0.08333333  0.37500000       0.010
   0.33333333  0.08333333  0.37500000       0.010
   0.41666667  0.08333333  0.37500000       0.010
   0.50000000  0.08333333  0.37500000       0.010
  -0.41666667  0.08333333  0.37500000       0.010
  -0.33333333  0.08333333  0.37500000       0.010
  -0.25000000  0.08333333  0.37500000       0.010
   0.16666667  0.16666667  0.37500000       0.010
   0.25000000  0.16666667  0.37500000       0.010
   0.33333333  0.16666667  0.37500000       0.010
   0.41666667  0.16666667  0.37500000       0.010
   0.50000000  0.16666667  0.37500000       0.010
  -0.41666667  0.16666667  0.37500000       0.010
   0.25000000  0.25000000  0.37500000       0.010
   0.33333333  0.25000000  0.37500000       0.010
   0.41666667  0.25000000  0.37500000       0.010
   0.33333333  0.33333333  0.37500000       0.003
   0.00000000  0.00000000  0.50000000       0.001
   0.08333333  0.00000000  0.50000000       0.005
   0.16666667  0.00000000  0.50000000       0.005
   0.25000000  0.00000000  0.50000000       0.005
   0.33333333  0.00000000  0.50000000       0.005
   0.41666667  0.00000000  0.50000000       0.005
   0.50000000  0.00000000  0.50000000       0.003
   0.08333333  0.08333333  0.50000000       0.005
   0.16666667  0.08333333  0.50000000       0.010
   0.25000000  0.08333333  0.50000000       0.010
   0.33333333  0.08333333  0.50000000       0.010
   0.41666667  0.08333333  0.50000000       0.010
   0.16666667  0.16666667  0.50000000       0.005
   0.25000000  0.16666667  0.50000000       0.010
   0.33333333  0.16666667  0.50000000       0.010
   0.41666667  0.16666667  0.50000000       0.005
   0.25000000  0.25000000  0.50000000       0.005
   0.33333333  0.25000000  0.50000000       0.010
   0.33333333  0.33333333  0.50000000       0.002
 
 position of ions in fractional coordinates (direct lattice) 
   0.33333333  0.66666667  0.84080493
   0.66666667  0.33333333  0.15919507
   0.00000000  0.00000000  0.00000000
   0.33333333  0.66666667  0.35142841
   0.66666667  0.33333333  0.64857159
 
 position of ions in cartesian coordinates  (Angst):
  -0.00000002  2.38176584  4.22405050
   2.06266973  1.19088290  0.79976696
   0.00000000  0.00000000  0.00000000
  -0.00000002  2.38176584  1.76551218
   2.06266973  1.19088290  3.25830528
 


--------------------------------------------------------------------------------------------------------


 k-point  1 :  0.00000.00000.0000  plane waves:     825
 k-point  2 :  0.08330.00000.0000  plane waves:     840
 k-point  3 :  0.16670.00000.0000  plane waves:     850
 k-point  4 :  0.25000.00000.0000  plane waves:     842
 k-point  5 :  0.33330.00000.0000  plane waves:     852
 k-point  6 :  0.41670.00000.0000  plane waves:     860
 k-point  7 :  0.50000.00000.0000  plane waves:     876
 k-point  8 :  0.08330.08330.0000  plane waves:     845
 k-point  9 :  0.16670.08330.0000  plane waves:     843
 k-point 10 :  0.25000.08330.0000  plane waves:     847
 k-point 11 :  0.33330.08330.0000  plane waves:     853
 k-point 12 :  0.41670.08330.0000  plane waves:     856
 k-point 13 :  0.16670.16670.0000  plane waves:     838
 k-point 14 :  0.25000.16670.0000  plane waves:     850
 k-point 15 :  0.33330.16670.0000  plane waves:     854
 k-point 16 :  0.41670.16670.0000  plane waves:     852
 k-point 17 :  0.25000.25000.0000  plane waves:     848
 k-point 18 :  0.33330.25000.0000  plane waves:     854
 k-point 19 :  0.33330.33330.0000  plane waves:     864
 k-point 20 :  0.00000.00000.1250  plane waves:     848
 k-point 21 :  0.08330.00000.1250  plane waves:     849
 k-point 22 :  0.16670.00000.1250  plane waves:     843
 k-point 23 :  0.25000.00000.1250  plane waves:     849
 k-point 24 :  0.33330.00000.1250  plane waves:     857
 k-point 25 :  0.41670.00000.1250  plane waves:     862
 k-point 26 :  0.50000.00000.1250  plane waves:     864
 k-point 27 :  -.41670.00000.1250  plane waves:     862
 k-point 28 :  -.33330.00000.1250  plane waves:     857
 k-point 29 :  -.25000.00000.1250  plane waves:     849
 k-point 30 :  -.16670.00000.1250  plane waves:     843
 k-point 31 :  -.08330.00000.1250  plane waves:     849
 k-point 32 :  0.08330.08330.1250  plane waves:     849
 k-point 33 :  0.16670.08330.1250  plane waves:     847
 k-point 34 :  0.25000.08330.1250  plane waves:     850
 k-point 35 :  0.33330.08330.1250  plane waves:     859
 k-point 36 :  0.41670.08330.1250  plane waves:     858
 k-point 37 :  0.50000.08330.1250  plane waves:     858
 k-point 38 :  -.41670.08330.1250  plane waves:     859
 k-point 39 :  -.33330.08330.1250  plane waves:     850
 k-point 40 :  -.25000.08330.1250  plane waves:     847
 k-point 41 :  0.16670.16670.1250  plane waves:     849
 k-point 42 :  0.25000.16670.1250  plane waves:     854
 k-point 43 :  0.33330.16670.1250  plane waves:     856
 k-point 44 :  0.41670.16670.1250  plane waves:     851
 k-point 45 :  0.50000.16670.1250  plane waves:     856
 k-point 46 :  -.41670.16670.1250  plane waves:     854
 k-point 47 :  0.25000.25000.1250  plane waves:     849
 k-point 48 :  0.33330.25000.1250  plane waves:     851
 k-point 49 :  0.41670.25000.1250  plane waves:     851
 k-point 50 :  0.33330.33330.1250  plane waves:     855
 k-point 51 :  0.00000.00000.2500  plane waves:     854
 k-point 52 :  0.08330.00000.2500  plane waves:     852
 k-point 53 :  0.16670.00000.2500  plane waves:     854
 k-point 54 :  0.25000.00000.2500  plane waves:     857
 k-point 55 :  0.33330.00000.2500  plane waves:     856
 k-point 56 :  0.41670.00000.2500  plane waves:     864
 k-point 57 :  0.50000.00000.2500  plane waves:     860
 k-point 58 :  -.41670.00000.2500  plane waves:     864
 k-point 59 :  -.33330.00000.2500  plane waves:     856
 k-point 60 :  -.25000.00000.2500  plane waves:     857
 k-point 61 :  -.16670.00000.2500  plane waves:     854
 k-point 62 :  -.08330.00000.2500  plane waves:     852
 k-point 63 :  0.08330.08330.2500  plane waves:     849
 k-point 64 :  0.16670.08330.2500  plane waves:     854
 k-point 65 :  0.25000.08330.2500  plane waves:     852
 k-point 66 :  0.33330.08330.2500  plane waves:     859
 k-point 67 :  0.41670.08330.2500  plane waves:     858
 k-point 68 :  0.50000.08330.2500  plane waves:     858
 k-point 69 :  -.41670.08330.2500  plane waves:     859
 k-point 70 :  -.33330.08330.2500  plane waves:     852
 k-point 71 :  -.25000.08330.2500  plane waves:     854
 k-point 72 :  0.16670.16670.2500  plane waves:     847
 k-point 73 :  0.25000.16670.2500  plane waves:     859
 k-point 74 :  0.33330.16670.2500  plane waves:     855
 k-point 75 :  0.41670.16670.2500  plane waves:     854
 k-point 76 :  0.50000.16670.2500  plane waves:     855
 k-point 77 :  -.41670.16670.2500  plane waves:     859
 k-point 78 :  0.25000.25000.2500  plane waves:     849
 k-point 79 :  0.33330.25000.2500  plane waves:     849
 k-point 80 :  0.41670.25000.2500  plane waves:     849
 k-point 81 :  0.33330.33330.2500  plane waves:     843
 k-point 82 :  0.00000.00000.3750  plane waves:     854
 k-point 83 :  0.08330.00000.3750  plane waves:     858
 k-point 84 :  0.16670.00000.3750  plane waves:     857
 k-point 85 :  0.25000.00000.3750  plane waves:     853
 k-point 86 :  0.33330.00000.3750  plane waves:     862
 k-point 87 :  0.41670.00000.3750  plane waves:     858
 k-point 88 :  0.50000.00000.3750  plane waves:     850
 k-point 89 :  -.41670.00000.3750  plane waves:     858
 k-point 90 :  -.33330.00000.3750  plane waves:     862
 k-point 91 :  -.25000.00000.3750  plane waves:     853
 k-point 92 :  -.16670.00000.3750  plane waves:     857
 k-point 93 :  -.08330.00000.3750  plane waves:     858
 k-point 94 :  0.08330.08330.3750  plane waves:     853
 k-point 95 :  0.16670.08330.3750  plane waves:     856
 k-point 96 :  0.25000.08330.3750  plane waves:     860
 k-point 97 :  0.33330.08330.3750  plane waves:     856
 k-point 98 :  0.41670.08330.3750  plane waves:     853
 k-point 99 :  0.50000.08330.3750  plane waves:     853
 k-point ** :  -.41670.08330.3750  plane waves:     856
 k-point ** :  -.33330.08330.3750  plane waves:     860
 k-point ** :  -.25000.08330.3750  plane waves:     856
 k-point ** :  0.16670.16670.3750  plane waves:     857
 k-point ** :  0.25000.16670.3750  plane waves:     858
 k-point ** :  0.33330.16670.3750  plane waves:     857
 k-point ** :  0.41670.16670.3750  plane waves:     856
 k-point ** :  0.50000.16670.3750  plane waves:     857
 k-point ** :  -.41670.16670.3750  plane waves:     858
 k-point ** :  0.25000.25000.3750  plane waves:     854
 k-point ** :  0.33330.25000.3750  plane waves:     852
 k-point ** :  0.41670.25000.3750  plane waves:     852
 k-point ** :  0.33330.33330.3750  plane waves:     846
 k-point ** :  0.00000.00000.5000  plane waves:     842
 k-point ** :  0.08330.00000.5000  plane waves:     858
 k-point ** :  0.16670.00000.5000  plane waves:     860
 k-point ** :  0.25000.00000.5000  plane waves:     864
 k-point ** :  0.33330.00000.5000  plane waves:     862
 k-point ** :  0.41670.00000.5000  plane waves:     864
 k-point ** :  0.50000.00000.5000  plane waves:     860
 k-point ** :  0.08330.08330.5000  plane waves:     858
 k-point ** :  0.16670.08330.5000  plane waves:     860
 k-point ** :  0.25000.08330.5000  plane waves:     860
 k-point ** :  0.33330.08330.5000  plane waves:     860
 k-point ** :  0.41670.08330.5000  plane waves:     852
 k-point ** :  0.16670.16670.5000  plane waves:     858
 k-point ** :  0.25000.16670.5000  plane waves:     860
 k-point ** :  0.33330.16670.5000  plane waves:     858
 k-point ** :  0.41670.16670.5000  plane waves:     850
 k-point ** :  0.25000.25000.5000  plane waves:     852
 k-point ** :  0.33330.25000.5000  plane waves:     846
 k-point ** :  0.33330.33330.5000  plane waves:     846

 maximum and minimum number of plane-waves per node :       876      825

 maximum number of plane-waves:       876
 maximum index in each direction: 
   IXMAX=    6   IYMAX=    5   IZMAX=    7
   IXMIN=   -6   IYMIN=   -6   IZMIN=   -7

 WARNING: aliasing errors must be expected set NGX to  26 to avoid them
 WARNING: aliasing errors must be expected set NGY to  24 to avoid them
 WARNING: aliasing errors must be expected set NGZ to  30 to avoid them
 aliasing errors are usually negligible using standard VASP settings
 and one can safely disregard these warnings

 serial   3D FFT for wavefunctions
 parallel 3D FFT for charge:
    minimum data exchange during FFTs selected (reduces bandwidth)


 total amount of memory used by VASP on root node    74790. kBytes
========================================================================

   base      :      30000. kBytes
   nonl-proj :      33119. kBytes
   fftplans  :        572. kBytes
   grid      :       1213. kBytes
   one-center:         77. kBytes
   wavefun   :       9809. kBytes
 
 Broyden mixing: mesh for mixing (old mesh)
   NGX = 11   NGY = 11   NGZ = 15
  (NGX  = 36   NGY  = 36   NGZ  = 48)
  gives a total of   1815 points

 initial charge density was supplied:
 charge density of overlapping atoms calculated
 number of electron      31.0000000 magnetization 
 keeping initial charge density in first step


--------------------------------------------------------------------------------------------------------


 Maximum index for augmentation-charges         1013 (set IRDMAX)


--------------------------------------------------------------------------------------------------------


 First call to EWALD:  gamma=   0.422
 Maximum number of real-space cells 3x 3x 2
 Maximum number of reciprocal cells 3x 3x 3

    FEWALD:  cpu time    0.00: real time    0.00


----------------------------------------- Iteration    1(   1)  ---------------------------------------


    POTLOK:  cpu time    0.03: real time    0.02
    SETDIJ:  cpu time    0.01: real time    0.01
     EDDAV:  cpu time    2.78: real time    2.79
       DOS:  cpu time    0.01: real time    0.01
    --------------------------------------------
      LOOP:  cpu time    2.85: real time    2.85

 eigenvalue-minimisations  :  5280
 total energy-change (2. order) : 0.1460261E+03  (-0.8722915E+03)
 number of electron      31.0000000 magnetization 
 augmentation part       31.0000000 magnetization 

 Free energy of the ion-electron system (eV)
  ---------------------------------------------------
  alpha Z        PSCENC =        54.26453599
  Ewald energy   TEWEN  =     -1875.24184231
  -1/2 Hartree   DENC   =     -1201.51879886
  -exchange  EXHF       =         0.00000000
  -V(xc)+E(xc)   XCENC  =        13.34509809
  PAW double counting   =      2655.01379113    -2770.83379652
  entropy T*S    EENTRO =         0.00049836
  eigenvalues    EBANDS =       328.51276002
  atomic energy  EATOM  =      2942.48381419
  ---------------------------------------------------
  free energy    TOTEN  =       146.02606010 eV

  energy without entropy =      146.02556173  energy(sigma->0) =      146.02589398


--------------------------------------------------------------------------------------------------------




----------------------------------------- Iteration    1(   2)  ---------------------------------------


     EDDAV:  cpu time    2.79: real time    2.80
       DOS:  cpu time    0.01: real time    0.01
    --------------------------------------------
      LOOP:  cpu time    2.80: real time    2.81

 eigenvalue-minimisations  :  5244
 total energy-change (2. order) :-0.1632453E+03  (-0.1556757E+03)
 number of electron      31.0000000 magnetization 
 augmentation part       31.0000000 magnetization 

 Free energy of the ion-electron system (eV)
  ---------------------------------------------------
  alpha Z        PSCENC =        54.26453599
  Ewald energy   TEWEN  =     -1875.24184231
  -1/2 Hartree   DENC   =     -1201.51879886
  -exchange  EXHF       =         0.00000000
  -V(xc)+E(xc)   XCENC  =        13.34509809
  PAW double counting   =      2655.01379113    -2770.83379652
  entropy T*S    EENTRO =         0.00184708
  eigenvalues    EBANDS =       165.26613826
  atomic energy  EATOM  =      2942.48381419
  ---------------------------------------------------
  free energy    TOTEN  =       -17.21921294 eV

  energy without entropy =      -17.22106002  energy(sigma->0) =      -17.21982863


--------------------------------------------------------------------------------------------------------




----------------------------------------- Iteration    1(   3)  ---------------------------------------


     EDDAV:  cpu time    3.30: real time    3.32
       DOS:  cpu time    0.02: real time    0.01
    --------------------------------------------
      LOOP:  cpu time    3.32: real time    3.34

 eigenvalue-minimisations  :  6744
 total energy-change (2. order) :-0.6413026E+01  (-0.6144064E+01)
 number of electron      31.0000000 magnetization 
 augmentation part       31.0000000 magnetization 

 Free energy of the ion-electron system (eV)
  ---------------------------------------------------
  alpha Z        PSCENC =        54.26453599
  Ewald energy   TEWEN  =     -1875.24184231
  -1/2 Hartree   DENC   =     -1201.51879886
  -exchange  EXHF       =         0.00000000
  -V(xc)+E(xc)   XCENC  =        13.34509809
  PAW double counting   =      2655.01379113    -2770.83379652
  entropy T*S    EENTRO =        -0.00133465
  eigenvalues    EBANDS =       158.85629412
  atomic energy  EATOM  =      2942.48381419
  ---------------------------------------------------
  free energy    TOTEN  =       -23.63223881 eV

  energy without entropy =      -23.63090416  energy(sigma->0) =      -23.63179393


--------------------------------------------------------------------------------------------------------




----------------------------------------- Iteration    1(   4)  ---------------------------------------


     EDDAV:  cpu time    3.72: real time    3.74
       DOS:  cpu time    0.01: real time    0.01
    --------------------------------------------
      LOOP:  cpu time    3.73: real time    3.75

 eigenvalue-minimisations  :  7592
 total energy-change (2. order) :-0.1867254E+00  (-0.1858626E+00)
 number of electron      31.0000000 magnetization 
 augmentation part       31.0000000 magnetization 

 Free energy of the ion-electron system (eV)
  ---------------------------------------------------
  alpha Z        PSCENC =        54.26453599
  Ewald energy   TEWEN  =     -1875.24184231
  -1/2 Hartree   DENC   =     -1201.51879886
  -exchange  EXHF       =         0.00000000
  -V(xc)+E(xc)   XCENC  =        13.34509809
  PAW double counting   =      2655.01379113    -2770.83379652
  entropy T*S    EENTRO =        -0.00064318
  eigenvalues    EBANDS =       158.66887721
  atomic energy  EATOM  =      2942.48381419
  ---------------------------------------------------
  free energy    TOTEN  =       -23.81896425 eV

  energy without entropy =      -23.81832107  energy(sigma->0) =      -23.81874986


--------------------------------------------------------------------------------------------------------




----------------------------------------- Iteration    1(   5)  ---------------------------------------


     EDDAV:  cpu time    3.46: real time    3.48
       DOS:  cpu time    0.01: real time    0.01
    CHARGE:  cpu time    0.19: real time    0.20
    MIXING:  cpu time    0.00: real time    0.00
    --------------------------------------------
      LOOP:  cpu time    3.66: real time    3.69

 eigenvalue-minimisations  :  6956
 total energy-change (2. order) :-0.4213610E-02  (-0.4212431E-02)
 number of electron      30.9999963 magnetization 
 augmentation part       11.7379200 magnetization 

 Broyden mixing:
  rms(total) = 0.19477E+01    rms(broyden)= 0.19475E+01
  rms(prec ) = 0.37657E+01
  weight for this iteration     100.00

 Free energy of the ion-electron system (eV)
  ---------------------------------------------------
  alpha Z        PSCENC =        54.26453599
  Ewald energy   TEWEN  =     -1875.24184231
  -1/2 Hartree   DENC   =     -1201.51879886
  -exchange  EXHF       =         0.00000000
  -V(xc)+E(xc)   XCENC  =        13.34509809
  PAW double counting   =      2655.01379113    -2770.83379652
  entropy T*S    EENTRO =        -0.00063151
  eigenvalues    EBANDS =       158.66465193
  atomic energy  EATOM  =      2942.48381419
  ---------------------------------------------------
  free energy    TOTEN  =       -23.82317786 eV

  energy without entropy =      -23.82254635  energy(sigma->0) =      -23.82296736


--------------------------------------------------------------------------------------------------------




----------------------------------------- Iteration    1(   6)  ---------------------------------------


    POTLOK:  cpu time    0.02: real time    0.02
    SETDIJ:  cpu time    0.01: real time    0.01
    EDDIAG:  cpu time    0.56: real time    0.56
  RMM-DIIS:  cpu time    1.76: real time    1.77
    ORTHCH:  cpu time    0.08: real time    0.09
       DOS:  cpu time    0.01: real time    0.01
    CHARGE:  cpu time    0.19: real time    0.20
    MIXING:  cpu time    0.01: real time    0.00
    --------------------------------------------
      LOOP:  cpu time    2.65: real time    2.65

 eigenvalue-minimisations  :  5430
 total energy-change (2. order) :-0.3326624E+01  (-0.1132685E+02)
 number of electron      30.9999948 magnetization 
 augmentation part       15.5558634 magnetization 

 Broyden mixing:
  rms(total) = 0.16305E+01    rms(broyden)= 0.16302E+01
  rms(prec ) = 0.31193E+01
  weight for this iteration     100.00

 eigenvalues of (default mixing * dielectric matrix)
  average eigenvalue GAMMA=   0.5449
  0.5449

 Free energy of the ion-electron system (eV)
  ---------------------------------------------------
  alpha Z        PSCENC =        54.26453599
  Ewald energy   TEWEN  =     -1875.24184231
  -1/2 Hartree   DENC   =     -1077.12956438
  -exchange  EXHF       =         0.00000000
  -V(xc)+E(xc)   XCENC  =         8.42857982
  PAW double counting   =      2732.05057032    -2823.79386461
  entropy T*S    EENTRO =         0.00111538
  eigenvalues    EBANDS =        11.78685329
  atomic energy  EATOM  =      2942.48381419
  ---------------------------------------------------
  free energy    TOTEN  =       -27.14980229 eV

  energy without entropy =      -27.15091767  energy(sigma->0) =      -27.15017409


--------------------------------------------------------------------------------------------------------




----------------------------------------- Iteration    1(   7)  ---------------------------------------


    POTLOK:  cpu time    0.02: real time    0.02
    SETDIJ:  cpu time    0.01: real time    0.01
    EDDIAG:  cpu time    0.55: real time    0.55
  RMM-DIIS:  cpu time    1.72: real time    1.72
    ORTHCH:  cpu time    0.08: real time    0.09
       DOS:  cpu time    0.02: real time    0.01
    CHARGE:  cpu time    0.19: real time    0.20
    MIXING:  cpu time    0.00: real time    0.00
    --------------------------------------------
      LOOP:  cpu time    2.59: real time    2.61

 eigenvalue-minimisations  :  5242
 total energy-change (2. order) : 0.7551068E+01  (-0.2604247E+01)
 number of electron      30.9999954 magnetization 
 augmentation part       14.0674921 magnetization 

 Broyden mixing:
  rms(total) = 0.25087E+00    rms(broyden)= 0.25066E+00
  rms(prec ) = 0.55642E+00
  weight for this iteration     100.00

 eigenvalues of (default mixing * dielectric matrix)
  average eigenvalue GAMMA=   0.9912
  0.6007  1.3818

 Free energy of the ion-electron system (eV)
  ---------------------------------------------------
  alpha Z        PSCENC =        54.26453599
  Ewald energy   TEWEN  =     -1875.24184231
  -1/2 Hartree   DENC   =     -1133.06342627
  -exchange  EXHF       =         0.00000000
  -V(xc)+E(xc)   XCENC  =        10.72283425
  PAW double counting   =      2893.48906789    -3006.99185392
  entropy T*S    EENTRO =        -0.00338384
  eigenvalues    EBANDS =        94.74152016
  atomic energy  EATOM  =      2942.48381419
  ---------------------------------------------------
  free energy    TOTEN  =       -19.59873385 eV

  energy without entropy =      -19.59535002  energy(sigma->0) =      -19.59760591


--------------------------------------------------------------------------------------------------------




----------------------------------------- Iteration    1(   8)  ---------------------------------------


    POTLOK:  cpu time    0.03: real time    0.02
    SETDIJ:  cpu time    0.01: real time    0.01
    EDDIAG:  cpu time    0.55: real time    0.56
  RMM-DIIS:  cpu time    1.73: real time    1.73
    ORTHCH:  cpu time    0.09: real time    0.09
       DOS:  cpu time    0.01: real time    0.01
    CHARGE:  cpu time    0.20: real time    0.20
    MIXING:  cpu time    0.00: real time    0.00
    --------------------------------------------
      LOOP:  cpu time    2.62: real time    2.63

 eigenvalue-minimisations  :  5260
 total energy-change (2. order) : 0.1080168E+00  (-0.2703629E+00)
 number of electron      30.9999956 magnetization 
 augmentation part       13.6514539 magnetization 

 Broyden mixing:
  rms(total) = 0.17035E+00    rms(broyden)= 0.17024E+00
  rms(prec ) = 0.30498E+00
  weight for this iteration     100.00

 eigenvalues of (default mixing * dielectric matrix)
  average eigenvalue GAMMA=   1.2272
  2.2228  0.7295  0.7295

 Free energy of the ion-electron system (eV)
  ---------------------------------------------------
  alpha Z        PSCENC =        54.26453599
  Ewald energy   TEWEN  =     -1875.24184231
  -1/2 Hartree   DENC   =     -1145.60112681
  -exchange  EXHF       =         0.00000000
  -V(xc)+E(xc)   XCENC  =        11.17658425
  PAW double counting   =      3056.46553627    -3176.27927495
  entropy T*S    EENTRO =        -0.00137417
  eigenvalues    EBANDS =       113.24243044
  atomic energy  EATOM  =      2942.48381419
  ---------------------------------------------------
  free energy    TOTEN  =       -19.49071710 eV

  energy without entropy =      -19.48934293  energy(sigma->0) =      -19.49025904


--------------------------------------------------------------------------------------------------------




----------------------------------------- Iteration    1(   9)  ---------------------------------------


    POTLOK:  cpu time    0.01: real time    0.02
    SETDIJ:  cpu time    0.02: real time    0.01
    EDDIAG:  cpu time    0.56: real time    0.56
  RMM-DIIS:  cpu time    1.75: real time    1.76
    ORTHCH:  cpu time    0.09: real time    0.09
       DOS:  cpu time    0.01: real time    0.01
    CHARGE:  cpu time    0.19: real time    0.20
    MIXING:  cpu time    0.01: real time    0.00
    --------------------------------------------
      LOOP:  cpu time    2.64: real time    2.65

 eigenvalue-minimisations  :  5344
 total energy-change (2. order) : 0.3297332E-01  (-0.1804618E-01)
 number of electron      30.9999955 magnetization 
 augmentation part       13.7739140 magnetization 

 Broyden mixing:
  rms(total) = 0.19830E-01    rms(broyden)= 0.19824E-01
  rms(prec ) = 0.43326E-01
  weight for this iteration     100.00

 eigenvalues of (default mixing * dielectric matrix)
  average eigenvalue GAMMA=   1.4714
  0.7482  0.7482  2.1947  2.1947

 Free energy of the ion-electron system (eV)
  ---------------------------------------------------
  alpha Z        PSCENC =        54.26453599
  Ewald energy   TEWEN  =     -1875.24184231
  -1/2 Hartree   DENC   =     -1140.26958460
  -exchange  EXHF       =         0.00000000
  -V(xc)+E(xc)   XCENC  =        10.96309845
  PAW double counting   =      3218.71032596    -3339.78127818
  entropy T*S    EENTRO =        -0.00195130
  eigenvalues    EBANDS =       109.41513802
  atomic energy  EATOM  =      2942.48381419
  ---------------------------------------------------
  free energy    TOTEN  =       -19.45774378 eV

  energy without entropy =      -19.45579248  energy(sigma->0) =      -19.45709335


--------------------------------------------------------------------------------------------------------




----------------------------------------- Iteration    1(  10)  ---------------------------------------


    POTLOK:  cpu time    0.02: real time    0.02
    SETDIJ:  cpu time    0.01: real time    0.01
    EDDIAG:  cpu time    0.55: real time    0.55
  RMM-DIIS:  cpu time    1.77: real time    1.79
    ORTHCH:  cpu time    0.09: real time    0.09
       DOS:  cpu time    0.02: real time    0.01
    CHARGE:  cpu time    0.19: real time    0.20
    MIXING:  cpu time    0.00: real time    0.00
    --------------------------------------------
      LOOP:  cpu time    2.65: real time    2.67

 eigenvalue-minimisations  :  5399
 total energy-change (2. order) :-0.7506273E-03  (-0.1341963E-02)
 number of electron      30.9999955 magnetization 
 augmentation part       13.7686511 magnetization 

 Broyden mixing:
  rms(total) = 0.21268E-01    rms(broyden)= 0.21265E-01
  rms(prec ) = 0.44964E-01
  weight for this iteration     100.00

 eigenvalues of (default mixing * dielectric matrix)
  average eigenvalue GAMMA=   1.4695
  2.4655  2.4655  0.9618  0.7275  0.7275

 Free energy of the ion-electron system (eV)
  ---------------------------------------------------
  alpha Z        PSCENC =        54.26453599
  Ewald energy   TEWEN  =     -1875.24184231
  -1/2 Hartree   DENC   =     -1140.17481007
  -exchange  EXHF       =         0.00000000
  -V(xc)+E(xc)   XCENC  =        10.99548272
  PAW double counting   =      3219.76942580    -3340.62708226
  entropy T*S    EENTRO =        -0.00202137
  eigenvalues    EBANDS =       109.07400289
  atomic energy  EATOM  =      2942.48381419
  ---------------------------------------------------
  free energy    TOTEN  =       -19.45849441 eV

  energy without entropy =      -19.45647304  energy(sigma->0) =      -19.45782062


--------------------------------------------------------------------------------------------------------




----------------------------------------- Iteration    1(  11)  ---------------------------------------


    POTLOK:  cpu time    0.03: real time    0.02
    SETDIJ:  cpu time    0.01: real time    0.01
    EDDIAG:  cpu time    0.54: real time    0.55
  RMM-DIIS:  cpu time    1.73: real time    1.73
    ORTHCH:  cpu time    0.08: real time    0.09
       DOS:  cpu time    0.01: real time    0.01
    CHARGE:  cpu time    0.19: real time    0.20
    MIXING:  cpu time    0.00: real time    0.00
    --------------------------------------------
      LOOP:  cpu time    2.59: real time    2.61

 eigenvalue-minimisations  :  5311
 total energy-change (2. order) : 0.7914607E-03  (-0.2454234E-03)
 number of electron      30.9999955 magnetization 
 augmentation part       13.7852336 magnetization 

 Broyden mixing:
  rms(total) = 0.76061E-02    rms(broyden)= 0.75981E-02
  rms(prec ) = 0.15696E-01
  weight for this iteration     100.00

 eigenvalues of (default mixing * dielectric matrix)
  average eigenvalue GAMMA=   1.5031
  2.5509  2.5509  0.7344  0.7344  1.2240  1.2240

 Free energy of the ion-electron system (eV)
  ---------------------------------------------------
  alpha Z        PSCENC =        54.26453599
  Ewald energy   TEWEN  =     -1875.24184231
  -1/2 Hartree   DENC   =     -1139.63414559
  -exchange  EXHF       =         0.00000000
  -V(xc)+E(xc)   XCENC  =        10.98668475
  PAW double counting   =      3219.38664882    -3340.11352757
  entropy T*S    EENTRO =        -0.00210219
  eigenvalues    EBANDS =       108.41223095
  atomic energy  EATOM  =      2942.48381419
  ---------------------------------------------------
  free energy    TOTEN  =       -19.45770295 eV

  energy without entropy =      -19.45560076  energy(sigma->0) =      -19.45700222


--------------------------------------------------------------------------------------------------------




----------------------------------------- Iteration    1(  12)  ---------------------------------------


    POTLOK:  cpu time    0.02: real time    0.02
    SETDIJ:  cpu time    0.01: real time    0.01
    EDDIAG:  cpu time    0.55: real time    0.54
  RMM-DIIS:  cpu time    1.71: real time    1.72
    ORTHCH:  cpu time    0.08: real time    0.09
       DOS:  cpu time    0.02: real time    0.01
    CHARGE:  cpu time    0.19: real time    0.20
    MIXING:  cpu time    0.00: real time    0.00
    --------------------------------------------
      LOOP:  cpu time    2.59: real time    2.59

 eigenvalue-minimisations  :  5262
 total energy-change (2. order) : 0.1030119E-03  (-0.8779452E-04)
 number of electron      30.9999955 magnetization 
 augmentation part       13.7934970 magnetization 

 Broyden mixing:
  rms(total) = 0.92869E-03    rms(broyden)= 0.87175E-03
  rms(prec ) = 0.17464E-02
  weight for this iteration     100.00

 eigenvalues of (default mixing * dielectric matrix)
  average eigenvalue GAMMA=   1.4997
  2.6975  2.5504  0.7351  0.7351  1.5149  1.1325  1.1325

 Free energy of the ion-electron system (eV)
  ---------------------------------------------------
  alpha Z        PSCENC =        54.26453599
  Ewald energy   TEWEN  =     -1875.24184231
  -1/2 Hartree   DENC   =     -1139.38131203
  -exchange  EXHF       =         0.00000000
  -V(xc)+E(xc)   XCENC  =        10.98110746
  PAW double counting   =      3217.02347376    -3337.67410122
  entropy T*S    EENTRO =        -0.00212894
  eigenvalues    EBANDS =       108.08885316
  atomic energy  EATOM  =      2942.48381419
  ---------------------------------------------------
  free energy    TOTEN  =       -19.45759993 eV

  energy without entropy =      -19.45547100  energy(sigma->0) =      -19.45689029


--------------------------------------------------------------------------------------------------------




----------------------------------------- Iteration    1(  13)  ---------------------------------------


    POTLOK:  cpu time    0.03: real time    0.02
    SETDIJ:  cpu time    0.01: real time    0.01
    EDDIAG:  cpu time    0.55: real time    0.56
  RMM-DIIS:  cpu time    2.00: real time    2.00
    ORTHCH:  cpu time    0.08: real time    0.09
       DOS:  cpu time    0.01: real time    0.01
    CHARGE:  cpu time    0.20: real time    0.20
    MIXING:  cpu time    0.00: real time    0.00
    --------------------------------------------
      LOOP:  cpu time    2.88: real time    2.89

 eigenvalue-minimisations  :  6109
 total energy-change (2. order) :-0.1228171E-04  (-0.1593286E-04)
 number of electron      30.9999955 magnetization 
 augmentation part       13.7954084 magnetization 

 Broyden mixing:
  rms(total) = 0.16202E-02    rms(broyden)= 0.15917E-02
  rms(prec ) = 0.34879E-02
  weight for this iteration     100.00

 eigenvalues of (default mixing * dielectric matrix)
  average eigenvalue GAMMA=   1.4286
  2.8464  2.5941  1.4691  1.4691  0.7376  0.7376  1.0515  0.5234

 Free energy of the ion-electron system (eV)
  ---------------------------------------------------
  alpha Z        PSCENC =        54.26453599
  Ewald energy   TEWEN  =     -1875.24184231
  -1/2 Hartree   DENC   =     -1139.34516421
  -exchange  EXHF       =         0.00000000
  -V(xc)+E(xc)   XCENC  =        10.98154091
  PAW double counting   =      3216.05413202    -3336.67550189
  entropy T*S    EENTRO =        -0.00214020
  eigenvalues    EBANDS =       108.02301328
  atomic energy  EATOM  =      2942.48381419
  ---------------------------------------------------
  free energy    TOTEN  =       -19.45761222 eV

  energy without entropy =      -19.45547201  energy(sigma->0) =      -19.45689881


--------------------------------------------------------------------------------------------------------




----------------------------------------- Iteration    1(  14)  ---------------------------------------


    POTLOK:  cpu time    0.02: real time    0.02
    SETDIJ:  cpu time    0.02: real time    0.01
    EDDIAG:  cpu time    0.55: real time    0.56
  RMM-DIIS:  cpu time    1.52: real time    1.53
    ORTHCH:  cpu time    0.09: real time    0.09
       DOS:  cpu time    0.01: real time    0.01
    --------------------------------------------
      LOOP:  cpu time    2.21: real time    2.22

 eigenvalue-minimisations  :  4434
 total energy-change (2. order) : 0.5731354E-06  (-0.8509125E-06)
 number of electron      30.9999955 magnetization 
 augmentation part       13.7954084 magnetization 

 Free energy of the ion-electron system (eV)
  ---------------------------------------------------
  alpha Z        PSCENC =        54.26453599
  Ewald energy   TEWEN  =     -1875.24184231
  -1/2 Hartree   DENC   =     -1139.36027655
  -exchange  EXHF       =         0.00000000
  -V(xc)+E(xc)   XCENC  =        10.98188082
  PAW double counting   =      3215.25997938    -3335.87001088
  entropy T*S    EENTRO =        -0.00214125
  eigenvalues    EBANDS =       108.02644897
  atomic energy  EATOM  =      2942.48381419
  ---------------------------------------------------
  free energy    TOTEN  =       -19.45761164 eV

  energy without entropy =      -19.45547039  energy(sigma->0) =      -19.45689789


--------------------------------------------------------------------------------------------------------




 average (electrostatic) potential at core
  the test charge radii are     0.9430  1.0406
  (the norm of the test charge is              1.0000)
       1 -64.7388       2 -64.7388       3 -72.7987       4 -72.7619       5 -72.7619
 
 
 
 E-fermi :   8.1510     XC(G=0): -10.8669     alpha+bet :-14.2278


 k-point   1 :       0.0000    0.0000    0.0000
  band No.  band energies     occupation 
      1      -2.9432      2.00000
      2       1.8440      2.00000
      3       2.3391      2.00000
      4       2.9204      2.00000
      5       2.9206      2.00000
      6       3.2809      2.00000
      7       3.2810      2.00000
      8       3.7373      2.00000
      9       3.7374      2.00000
     10       4.1151      2.00000
     11       4.1152      2.00000
     12       4.5596      2.00000
     13       4.5999      2.00000
     14       8.0014      1.95111
     15       8.0015      1.95093
     16       9.4892      0.00000
     17       9.4892      0.00000
     18      10.5783      0.00000
     19      10.9678      0.00000
     20      13.4297      0.00000

 k-point   2 :       0.0833    0.0000    0.0000
  band No.  band energies     occupation 
      1      -2.8620      2.00000
      2       1.8853      2.00000
      3       2.3354      2.00000
      4       2.9371      2.00000
      5       2.9456      2.00000
      6       3.2618      2.00000
      7       3.2902      2.00000
      8       3.7279      2.00000
      9       3.7318      2.00000
     10       4.0705      2.00000
     11       4.1141      2.00000
     12       4.6026      2.00000
     13       4.6191      2.00000
     14       7.2037      2.00000
     15       7.5864      2.00049
     16       9.2839      0.00000
     17       9.9982      0.00000
     18      11.1394      0.00000
     19      11.6792      0.00000
     20      12.5993      0.00000

 k-point   3 :       0.1667    0.0000    0.0000
  band No.  band energies     occupation 
      1      -2.6192      2.00000
      2       1.9932      2.00000
      3       2.3037      2.00000
[...]
      4       1.9040      2.00000
      5       2.9032      2.00000
      6       3.3485      2.00000
      7       3.3768      2.00000
      8       3.5846      2.00000
      9       3.5920      2.00000
     10       3.6178      2.00000
     11       3.9430      2.00000
     12       4.0417      2.00000
     13       4.1108      2.00000
     14       4.6903      2.00000
     15       6.4471      2.00000
     16       7.9700      1.99053
     17       8.8838      0.00000
     18       9.0399      0.00000
     19      13.2239      0.00000
     20      13.3788      0.00000

 k-point 120 :       0.0833    0.0833    0.5000
  band No.  band energies     occupation 
      1      -1.6707      2.00000
      2      -0.7217      2.00000
      3       2.7328      2.00000
      4       2.8818      2.00000
      5       2.9017      2.00000
      6       3.1989      2.00000
      7       3.2429      2.00000
      8       3.7651      2.00000
      9       3.8748      2.00000
     10       3.8945      2.00000
     11       4.0055      2.00000
     12       4.0467      2.00000
     13       7.5737      2.00054
     14       7.6363      2.00242
     15       8.0155      1.83451
     16       8.6485     -0.00168
     17      10.5091      0.00000
     18      10.5435      0.00000
     19      10.7537      0.00000
     20      10.7705      0.00000

 k-point 121 :       0.1667    0.0833    0.5000
  band No.  band energies     occupation 
      1      -1.3494      2.00000
      2      -0.4317      2.00000
      3       2.5974      2.00000
      4       2.8818      2.00000
      5       2.9800      2.00000
      6       3.1837      2.00000
      7       3.2724      2.00000
      8       3.6815      2.00000
      9       3.8281      2.00000
     10       3.8869      2.00000
     11       3.9489      2.00000
     12       4.0205      2.00000
     13       6.3175      2.00000
     14       6.6893      2.00000
     15       7.1758      2.00000
     16       8.0400      1.70756
     17      10.2757      0.00000
     18      10.3632      0.00000
     19      11.1736      0.00000
     20      11.5925      0.00000

 k-point 122 :       0.2500    0.0833    0.5000
  band No.  band energies     occupation 
      1      -0.8753      2.00000
      2      -0.0078      2.00000
      3       2.3683      2.00000
      4       2.8003      2.00000
      5       3.0816      2.00000
      6       3.1430      2.00000
      7       3.3046      2.00000
      8       3.5491      2.00000
      9       3.7577      2.00000
     10       3.8424      2.00000
     11       3.9202      2.00000
     12       4.0049      2.00000
     13       5.2317      2.00000
     14       5.7141      2.00000
     15       6.6178      2.00000
     16       7.6326      2.00223
     17       9.9637      0.00000
     18      10.0953      0.00000
     19      11.7608      0.00000
     20      12.1332      0.00000

 k-point 123 :       0.3333    0.0833    0.5000
  band No.  band energies     occupation 
      1      -0.2615      2.00000
      2       0.5260      2.00000
      3       1.9406      2.00000
      4       2.5257      2.00000
      5       2.9816      2.00000
      6       3.2072      2.00000
      7       3.3391      2.00000
      8       3.4930      2.00000
      9       3.6769      2.00000
     10       3.7615      2.00000
     11       3.9190      2.00000
     12       4.0116      2.00000
     13       4.5160      2.00000
     14       5.0296      2.00000
     15       6.2306      2.00000
     16       7.3781      2.00000
     17       9.7571      0.00000
     18       9.8847      0.00000
     19      12.4256      0.00000
     20      12.6295      0.00000

 k-point 124 :       0.4167    0.0833    0.5000
  band No.  band energies     occupation 
      1       0.4641      2.00000
      2       1.0630      2.00000
      3       1.2795      2.00000
      4       2.0627      2.00000
      5       2.8637      2.00000
      6       3.3065      2.00000
      7       3.3555      2.00000
      8       3.5301      2.00000
      9       3.6025      2.00000
     10       3.6905      2.00000
     11       3.9057      2.00000
     12       4.0529      2.00000
     13       4.1843      2.00000
     14       4.7197      2.00000
     15       6.0238      2.00000
     16       7.2557      2.00000
     17       9.6562      0.00000
     18       9.7735      0.00000
     19      13.0899      0.00000
     20      13.2220      0.00000

 k-point 125 :       0.1667    0.1667    0.5000
  band No.  band energies     occupation 
      1      -0.9535      2.00000
      2      -0.0768      2.00000
      3       2.4465      2.00000
      4       2.8290      2.00000
      5       3.0534      2.00000
      6       3.2010      2.00000
      7       3.2578      2.00000
      8       3.5596      2.00000
      9       3.7595      2.00000
     10       3.8939      2.00000
     11       3.9310      2.00000
     12       3.9669      2.00000
     13       5.6415      2.00000
     14       5.8926      2.00000
     15       6.2450      2.00000
     16       7.1828      2.00000
     17      11.0229      0.00000
     18      11.2851      0.00000
     19      11.4724      0.00000
     20      11.5533      0.00000

 k-point 126 :       0.2500    0.1667    0.5000
  band No.  band energies     occupation 
      1      -0.4119      2.00000
      2       0.4012      2.00000
      3       2.2047      2.00000
      4       2.6657      2.00000
      5       3.0423      2.00000
      6       3.1393      2.00000
      7       3.2612      2.00000
      8       3.4762      2.00000
      9       3.6846      2.00000
     10       3.8598      2.00000
     11       3.9158      2.00000
     12       3.9544      2.00000
     13       4.8470      2.00000
     14       5.2652      2.00000
     15       5.6446      2.00000
     16       6.7044      2.00000
     17      11.0694      0.00000
     18      11.1608      0.00000
     19      12.1973      0.00000
     20      12.4998      0.00000

 k-point 127 :       0.3333    0.1667    0.5000
  band No.  band energies     occupation 
      1       0.2554      2.00000
      2       0.9611      2.00000
      3       1.7260      2.00000
      4       2.3448      2.00000
      5       2.7509      2.00000
      6       3.1741      2.00000
      7       3.3252      2.00000
      8       3.4832      2.00000
      9       3.6076      2.00000
     10       3.7996      2.00000
     11       3.8813      2.00000
     12       4.0215      2.00000
     13       4.3681      2.00000
     14       4.8071      2.00000
     15       5.3396      2.00000
     16       6.4785      2.00000
     17      10.9306      0.00000
     18      11.0663      0.00000
     19      12.9083      0.00000
     20      13.1330      0.00000

 k-point 128 :       0.4167    0.1667    0.5000
  band No.  band energies     occupation 
      1       0.9969      2.00000
      2       1.0048      2.00000
      3       1.3781      2.00000
      4       2.0114      2.00000
      5       2.6449      2.00000
      6       3.1839      2.00000
      7       3.3574      2.00000
      8       3.5174      2.00000
      9       3.5512      2.00000
     10       3.7824      2.00000
     11       3.8491      2.00000
     12       4.1152      2.00000
     13       4.1868      2.00000
     14       4.6478      2.00000
     15       5.2413      2.00000
     16       6.4113      2.00000
     17      10.8769      0.00000
     18      11.0300      0.00000
     19      13.4635      0.00000
     20      13.6955      0.00000

 k-point 129 :       0.2500    0.2500    0.5000
  band No.  band energies     occupation 
      1       0.1844      2.00000
      2       0.9139      2.00000
      3       2.0153      2.00000
      4       2.4066      2.00000
      5       2.7329      2.00000
      6       3.0508      2.00000
      7       3.3119      2.00000
      8       3.4673      2.00000
      9       3.6096      2.00000
     10       3.8464      2.00000
     11       3.9294      2.00000
     12       3.9577      2.00000
     13       4.5449      2.00000
     14       4.8595      2.00000
     15       4.9765      2.00000
     16       6.1441      2.00000
     17      11.8480      0.00000
     18      12.2990      0.00000
     19      12.6523      0.00000
     20      12.8141      0.00000

 k-point 130 :       0.3333    0.2500    0.5000
  band No.  band energies     occupation 
      1       0.8792      2.00000
      2       1.4509      2.00000
      3       1.5807      2.00000
      4       2.1438      2.00000
      5       2.3188      2.00000
      6       2.9617      2.00000
      7       3.3815      2.00000
      8       3.4808      2.00000
      9       3.5347      2.00000
     10       3.8234      2.00000
     11       3.9301      2.00000
     12       4.0738      2.00000
     13       4.3303      2.00000
     14       4.5915      2.00000
     15       4.6834      2.00000
     16       5.9214      2.00000
     17      12.1504      0.00000
     18      12.2960      0.00000
     19      13.5121      0.00000
     20      13.6865      0.00000

 k-point 131 :       0.3333    0.3333    0.5000
  band No.  band energies     occupation 
      1       1.4313      2.00000
      2       1.5985      2.00000
      3       1.5986      2.00000
      4       1.9563      2.00000
      5       1.9563      2.00000
      6       2.8118      2.00000
      7       3.4527      2.00000
      8       3.4527      2.00000
      9       3.4872      2.00000
     10       3.8144      2.00000
     11       4.0756      2.00000
     12       4.0756      2.00000
     13       4.3643      2.00000
     14       4.4204      2.00000
     15       4.4204      2.00000
     16       5.7472      2.00000
     17      12.7943      0.00000
     18      13.2035      0.00000
     19      13.2035      0.00000
     20      14.1517      0.00000


--------------------------------------------------------------------------------------------------------


 soft charge-density along one line, spin component           1
         0         1         2         3         4         5         6         7         8         9
 total charge-density along one line
 
 pseudopotential strength for first ion, spin component:           1
 -3.698   0.000   0.000  -0.015   0.000  -4.095   0.000   0.000
  0.000  -3.692   0.000   0.000  -0.015   0.000  -4.100   0.000
  0.000   0.000  -3.716   0.000   0.000   0.000   0.000  -4.083
 -0.015   0.000   0.000  -3.692   0.000   0.010   0.000   0.000
  0.000  -0.015   0.000   0.000  -3.698   0.000   0.010   0.000
 -4.095   0.000   0.000   0.010   0.000   9.826   0.000   0.000
  0.000  -4.100   0.000   0.000   0.010   0.000   9.829   0.000
  0.000   0.000  -4.083   0.000   0.000   0.000   0.000   9.819
  0.010   0.000   0.000  -4.100   0.000  -0.006   0.000   0.000
  0.000   0.010   0.000   0.000  -4.095   0.000  -0.006   0.000
  0.000   0.000   0.000   0.000   0.000   0.000   0.000   0.001
  0.000   0.000   0.001   0.000   0.000   0.000   0.000   0.002
  0.000   0.005   0.000   0.000   0.001   0.000   0.000   0.000
  0.000   0.000   0.007   0.000   0.000   0.000   0.000  -0.002
  0.001   0.000   0.000   0.005   0.000  -0.001   0.000   0.000
  0.000   0.005   0.000   0.000   0.001   0.000   0.003   0.000
  0.000   0.000   0.006   0.000   0.000   0.000   0.000   0.000
  0.001   0.000   0.000   0.005   0.000  -0.001   0.000   0.000
 total augmentation occupancy for first ion, spin component:           1
  1.908   0.000   0.000  -0.007   0.000  -0.016   0.000   0.000   0.017   0.000   0.000   0.000   0.000   0.000   0.015   0.000
  0.000   1.913   0.000   0.000  -0.007   0.000  -0.027   0.000   0.000   0.017   0.000   0.000  -0.025   0.000   0.000   0.011
  0.000   0.000   1.904   0.000   0.000   0.000   0.000  -0.002   0.000   0.000  -0.004   0.000   0.000  -0.021   0.000   0.000
 -0.007   0.000   0.000   1.913   0.000   0.017   0.000   0.000  -0.027   0.000   0.000   0.000   0.000   0.000  -0.025   0.000
  0.000  -0.007   0.000   0.000   1.908   0.000   0.017   0.000   0.000  -0.016   0.000   0.000   0.015   0.000   0.000   0.001
 -0.016   0.000   0.000   0.017   0.000   0.014   0.000   0.000  -0.001   0.000   0.000   0.000   0.000   0.000  -0.006   0.000
  0.000  -0.027   0.000   0.000   0.017   0.000   0.016   0.000   0.000  -0.001   0.000   0.000   0.008   0.000   0.000  -0.001
  0.000   0.000  -0.002   0.000   0.000   0.000   0.000   0.014   0.000   0.000   0.007  -0.001   0.000  -0.006   0.000   0.000
  0.017   0.000   0.000  -0.027   0.000  -0.001   0.000   0.000   0.016   0.000   0.000   0.000   0.000   0.000   0.008   0.000
  0.000   0.017   0.000   0.000  -0.016   0.000  -0.001   0.000   0.000   0.014   0.000   0.000  -0.006   0.000   0.000   0.000
  0.000   0.000  -0.004   0.000   0.000   0.000   0.000   0.007   0.000   0.000   1.845  -0.158   0.000  -0.049   0.000   0.000
  0.000   0.000   0.000   0.000   0.000   0.000   0.000  -0.001   0.000   0.000  -0.158   0.024   0.000  -0.009   0.000   0.000
  0.000  -0.025   0.000   0.000   0.015   0.000   0.008   0.000   0.000  -0.006   0.000   0.000   0.314   0.000   0.000  -0.016
  0.000   0.000  -0.021   0.000   0.000   0.000   0.000  -0.006   0.000   0.000  -0.049  -0.009   0.000   0.313   0.000   0.000
  0.015   0.000   0.000  -0.025   0.000  -0.006   0.000   0.000   0.008   0.000   0.000   0.000   0.000   0.000   0.314   0.000
  0.000   0.011   0.000   0.000   0.001   0.000  -0.001   0.000   0.000   0.000   0.000   0.000  -0.016   0.000   0.000   0.001
  0.000   0.000   0.013   0.000   0.000   0.000   0.000   0.000   0.000   0.000   0.001   0.001   0.000  -0.017   0.000   0.000
  0.001   0.000   0.000   0.011   0.000   0.000   0.000   0.000  -0.001   0.000   0.000   0.000   0.000   0.000  -0.016   0.000


------------------------ aborting loop because EDIFF is reached ----------------------------------------


    CHARGE:  cpu time    0.20: real time    0.20
    FORLOC:  cpu time    0.00: real time    0.00
    FORNL :  cpu time    1.02: real time    1.02
    STRESS:  cpu time    2.57: real time    2.58
    FORCOR:  cpu time    0.03: real time    0.03
    FORHAR:  cpu time    0.01: real time    0.01
    MIXING:  cpu time    0.00: real time    0.00

  FORCE on cell =-STRESS in cart. coord.  units (eV):
  Direction    XX          YY          ZZ          XY          YZ          ZX
  --------------------------------------------------------------------------------------
  Alpha Z    54.18293    54.18293    54.18293
  Ewald    -565.73256  -565.73254  -742.85956     0.00001     0.00000     0.00000
  Hartree   435.43596   435.43596   269.04467     0.00000     0.00000     0.00000
  E(xc)    -154.39068  -154.39082  -154.41344    -0.00009    -0.00002    -0.00001
  Local    -201.54274  -201.54606   143.13396    -0.00296    -0.00029    -0.00017
  n-local    18.27995    17.41026    18.24095     1.04384    -0.00891    -0.19444
  augment   188.36404   188.36683   187.99624     0.00241     0.00024     0.00010
  Kinetic   225.74092   225.93626   224.61611     2.41550    -0.12376    -1.79776
  Fock        0.00000     0.00000     0.00000     0.00000     0.00000     0.00000
  -------------------------------------------------------------------------------------
  Total       0.00032     0.00032    -0.05815     0.00000     0.00000     0.00000
  in kB       0.00686     0.00686    -1.25631     0.00000     0.00000     0.00000
  external pressure =       -0.41 kB  Pullay stress =        0.00 kB


 VOLUME and BASIS-vectors are now :
 -----------------------------------------------------------------------------
  energy-cutoff  :      295.45
  volume of cell :       74.15
      direct lattice vectors                 reciprocal lattice vectors
     4.127489903  0.000000000  0.000000000     0.242278000  0.139879269  0.000000000
    -2.063744952  3.574511110  0.000000000     0.000000000  0.279758537  0.000000000
     0.000000000  0.000000000  5.026142542     0.000000000  0.000000000  0.198959737

  length of vectors
     4.127489903  4.127489903  5.026142542     0.279758537  0.279758537  0.198959737


 FORCES acting on ions
    electron-ion (+dipol)            ewald-force                    non-local-force                 convergence-correction
 -----------------------------------------------------------------------------------------------
   -.661E-05 -.204E-04 0.150E+03   0.675E-05 -.390E-05 -.154E+03   0.000E+00 0.000E+00 0.400E+01   0.692E-07 -.389E-07 0.817E-02
   0.661E-05 0.204E-04 -.150E+03   -.675E-05 0.390E-05 0.154E+03   -.139E-16 0.000E+00 -.400E+01   -.692E-07 0.389E-07 -.817E-02
   -.221E-14 -.427E-14 -.287E-14   0.174E-14 0.180E-14 0.577E-14   0.207E-24 0.000E+00 0.000E+00   -.307E-14 -.568E-14 0.606E-13
   -.382E-05 0.214E-04 -.410E+02   0.240E-05 -.139E-05 0.418E+02   -.347E-16 0.000E+00 -.817E+00   -.420E-07 0.243E-07 -.150E-02
   0.382E-05 -.214E-04 0.410E+02   -.240E-05 0.139E-05 -.418E+02   0.347E-16 0.000E+00 0.817E+00   0.420E-07 -.243E-07 0.150E-02
 -----------------------------------------------------------------------------------------------
   0.387E-11 -.360E-11 -.673E-11   -.508E-15 0.308E-14 0.142E-13   -.139E-16 0.000E+00 -.111E-15   -.258E-13 0.252E-12 0.105E-11
 
 
 POSITION                                       TOTAL-FORCE (eV/Angst)
 -----------------------------------------------------------------------------------
      0.00000      2.38301      4.22597         0.000000      0.000000     -0.006298
      2.06374      1.19150      0.80017         0.000000      0.000000      0.006298
      0.00000      0.00000      0.00000         0.000000      0.000000      0.000000
      0.00000      2.38301      1.76639         0.000000      0.000000      0.009356
      2.06374      1.19150      3.25976         0.000000      0.000000     -0.009356
 -----------------------------------------------------------------------------------
    total drift:                                0.000000      0.000000      0.000000


--------------------------------------------------------------------------------------------------------



  FREE ENERGIE OF THE ION-ELECTRON SYSTEM (eV)
  ---------------------------------------------------
  free  energy   TOTEN  =       -19.457621 eV

  energy  without entropy=      -19.455454  energy(sigma->0) =      -19.456898
 
 d Force =-0.1340533E-05[-0.147E-05,-0.122E-05]  d Energy = 0.1131532E-03-0.114E-03
 d Force =-0.1432542E-01[-0.143E-01,-0.143E-01]  d Ewald  = 0.9183665E+00-0.933E+00


--------------------------------------------------------------------------------------------------------


    POTLOK:  cpu time    0.04: real time    0.03


--------------------------------------------------------------------------------------------------------




--------------------------------------------------------------------------------------------------------


  
 reached required accuracy - stopping structural energy minimisation
     LOOP+:  cpu time   17.22: real time   17.29
    4ORBIT:  cpu time    0.00: real time    0.00

 total amount of memory used by VASP on root node    74790. kBytes
========================================================================

   base      :      30000. kBytes
   nonl-proj :      33119. kBytes
   fftplans  :        572. kBytes
   grid      :       1213. kBytes
   one-center:         77. kBytes
   wavefun   :       9809. kBytes
 
  
  
 General timing and accounting informations for this job:
 ========================================================
  
                  Total CPU time used (sec):      128.790
                            User time (sec):      128.520
                          System time (sec):        0.270
                         Elapsed time (sec):      129.372
  
                   Maximum memory used (kb):       78020.
                   Average memory used (kb):           0.
  
                          Minor page faults:        19820
                          Major page faults:            0
                 Voluntary context switches:          758
