 vasp.5.2.12 11Nov11 complex                                                    
  
 executed on             LinuxIFC date 2014.05.30  10:53:32
 running on    4 nodes
 distr:  one band on    1 nodes,    4 groups


--------------------------------------------------------------------------------------------------------


 INCAR:
 POTCAR:    PAW_PBE Cu 22Jun2005                  
 POTCAR:    PAW_PBE Al 04Jan2001                  
 POTCAR:    PAW_PBE Cu 22Jun2005                  
   VRHFIN =Cu: d10 p1                                                           
   LEXCH  = PE                                                                  
   EATOM  =  1390.9808 eV,  102.2342 Ry                                         
                                                                                
   TITEL  = PAW_PBE Cu 22Jun2005                                                
   LULTRA =        F    use ultrasoft PP ?                                      
   IUNSCR =        1    unscreen: 0-lin 1-nonlin 2-no                           
   RPACOR =    2.000    partial core radius                                     
   POMASS =   63.546; ZVAL   =   11.000    mass and valenz                      
   RCORE  =    2.300    outmost cutoff radius                                   
   RWIGS  =    2.200; RWIGS  =    1.164    wigner-seitz radius (au A)           
   ENMAX  =  295.446; ENMIN  =  221.585 eV                                      
   ICORE  =        3    local potential                                         
   LCOR   =        T    correct aug charges                                     
   LPAW   =        T    paw PP                                                  
   EAUG   =  586.980                                                            
   DEXC   =    0.000                                                            
   RMAX   =    2.344    core radius for proj-oper                               
   RAUG   =    1.300    factor for augmentation sphere                          
   RDEP   =    2.302    radius for radial grids                                 
   RDEPT  =    1.771    core radius for aug-charge                              
                                                                                
   Atomic configuration                                                         
    9 entries                                                                   
     n  l   j            E        occ.                                          
     1  0  0.50     -8850.2468   2.0000                                         
     2  0  0.50     -1062.3498   2.0000                                         
     2  1  1.50      -916.8226   6.0000                                         
     3  0  0.50      -114.6929   2.0000                                         
     3  1  1.50       -72.1325   6.0000                                         
     3  2  2.50        -5.0394  10.0000                                         
     4  0  0.50        -4.6097   1.0000                                         
     4  1  0.50        -4.0817   0.0000                                         
     4  3  2.50        -1.3606   0.0000                                         
   Description                                                                  
     l       E           TYP  RCUT    TYP  RCUT                                 
     2     -5.0393973     23  2.200                                             
     2     10.8846608     23  2.200                                             
     0     -4.6097109     23  2.200                                             
     0      8.2520465     23  2.200                                             
     1     -2.7211652     23  2.200                                             
     1     21.7055443     23  2.200                                             
     3      2.7211652     23  2.300                                             
  local pseudopotential read in
  partial core-charges read in
  partial kinetic energy density read in
  atomic valenz-charges read in
  non local Contribution for L=           2  read in
    real space projection operators read in
  non local Contribution for L=           2  read in
    real space projection operators read in
  non local Contribution for L=           0  read in
    real space projection operators read in
  non local Contribution for L=           0  read in
    real space projection operators read in
  non local Contribution for L=           1  read in
    real space projection operators read in
  non local Contribution for L=           1  read in
    real space projection operators read in
    PAW grid and wavefunctions read in
 
   number of l-projection  operators is LMAX  =           6
   number of lm-projection operators is LMMAX =          18
 
 POTCAR:    PAW_PBE Al 04Jan2001                  
   VRHFIN =Al: s2p1                                                             
   LEXCH  = PE                                                                  
   EATOM  =    53.5387 eV,    3.9350 Ry                                         
                                                                                
   TITEL  = PAW_PBE Al 04Jan2001                                                
   LULTRA =        F    use ultrasoft PP ?                                      
   IUNSCR =        1    unscreen: 0-lin 1-nonlin 2-no                           
   RPACOR =    1.500    partial core radius                                     
   POMASS =   26.981; ZVAL   =    3.000    mass and valenz                      
   RCORE  =    1.900    outmost cutoff radius                                   
   RWIGS  =    2.650; RWIGS  =    1.402    wigner-seitz radius (au A)           
   ENMAX  =  240.300; ENMIN  =  180.225 eV                                      
   ICORE  =        2    local potential                                         
   LCOR   =        T    correct aug charges                                     
   LPAW   =        T    paw PP                                                  
   EAUG   =  291.052                                                            
   DEXC   =    0.000                                                            
   RMAX   =    1.939    core radius for proj-oper                               
   RAUG   =    1.300    factor for augmentation sphere                          
   RDEP   =    1.966    radius for radial grids                                 
   RDEPT  =    1.856    core radius for aug-charge                              
                                                                                
   Atomic configuration                                                         
    6 entries                                                                   
     n  l   j            E        occ.                                          
     1  0  0.50     -1511.1048   2.0000                                         
     2  0  0.50      -108.1629   2.0000                                         
     2  1  1.50       -69.6402   6.0000                                         
     3  0  0.50        -7.7528   2.0000                                         
     3  1  1.50        -2.7121   1.0000                                         
     3  2  2.50        -2.7212   0.0000                                         
   Description                                                                  
     l       E           TYP  RCUT    TYP  RCUT                                 
     0     -7.7528455     23  1.900                                             
     0     -3.3096929     23  1.900                                             
     1     -2.7120682     23  1.900                                             
     1     13.6058260     23  1.900                                             
     2     -2.7211652      7  1.900                                             
  local pseudopotential read in
  partial core-charges read in
  partial kinetic energy density read in
  atomic valenz-charges read in
  non local Contribution for L=           0  read in
    real space projection operators read in
  non local Contribution for L=           0  read in
    real space projection operators read in
  non local Contribution for L=           1  read in
    real space projection operators read in
  non local Contribution for L=           1  read in
    real space projection operators read in
    PAW grid and wavefunctions read in
 
   number of l-projection  operators is LMAX  =           4
   number of lm-projection operators is LMMAX =           8
 
  PAW_PBE Cu 22Jun2005                  :
 energy of atom  1       EATOM=-1390.9808
 kinetic energy error for atom=    0.0452 (will be added to EATOM!!)
  PAW_PBE Al 04Jan2001                  :
 energy of atom  2       EATOM=  -53.5387
 kinetic energy error for atom=    0.0012 (will be added to EATOM!!)
 
 
 POSCAR: XYZ: Cu2Al2                             
  positions in direct lattice
  velocities in cartesian coordinates
 exchange correlation table for  LEXCH =        8
   RHO(1)=    0.500       N(1)  =     2000
   RHO(2)=  100.500       N(2)  =     4000
 


--------------------------------------------------------------------------------------------------------


 ion  position               nearest neighbor table
   1  0.000  0.000  0.000-   3 2.48   4 2.48   3 2.48   4 2.48   4 2.48   3 2.48   2 2.57   2 2.57

   2  0.000  0.000  0.500-   3 2.48   4 2.48   3 2.48   4 2.48   4 2.48   3 2.48   1 2.57   1 2.57

   3  0.333  0.667  0.250-   1 2.48   2 2.48   1 2.48   2 2.48   1 2.48   2 2.48   4 3.33   4 3.33
                             4 3.33   4 3.33   4 3.33   4 3.33
   4  0.667  0.333  0.750-   1 2.48   2 2.48   1 2.48   2 2.48   1 2.48   2 2.48   3 3.33   3 3.33
                             3 3.33   3 3.33   3 3.33   3 3.33
 
  LATTYP: Found a hexagonal cell.
 ALAT       =     3.6834553693
 C/A-ratio  =     1.3931033344
  
  Lattice vectors:
  
 A1 = (   3.6834553694,   0.0000000000,   0.0000000000)
 A2 = (  -1.8417276847,   3.1899659235,   0.0000000000)
 A3 = (   0.0000000000,   0.0000000000,   5.1314339571)
 Subroutine PRICEL returns:
 Original cell was already a primitive cell.
 

Analysis of symmetry for initial positions (statically):

 Routine SETGRP: Setting up the symmetry group for a 
 hexagonal supercell.


 Subroutine GETGRP returns: Found 24 space group operations
 (whereof 12 operations were pure point group operations)
 out of a pool of 24 trial point group operations.


The static configuration has the point symmetry D_3d.
 The point group associated with its full space group is D_6h.

Analysis of symmetry for dynamics (positions and initial velocities):

 Subroutine DYNSYM returns: Found 24 space group operations
 (whereof 12 operations were pure point group operations)
 out of a pool of 24 trial space group operations
 (whereof 12 operations were pure point group operations)
 and found also     1 'primitive' translations


The dynamic configuration has the point symmetry D_3d.
 The point group associated with its full space group is D_6h.
 
 
 KPOINTS: Automatic mesh                          

Automatic generation of k-mesh.
 
 Subroutine IBZKPT returns following result:
 ===========================================
 
 Found     64 irreducible k-points:
 
 Following reciprocal coordinates:
            Coordinates               Weight
  0.000000  0.000000  0.000000      1.000000
  0.090909  0.000000  0.000000      6.000000
  0.181818  0.000000  0.000000      6.000000
  0.272727  0.000000  0.000000      6.000000
  0.363636  0.000000  0.000000      6.000000
  0.454545  0.000000  0.000000      6.000000
  0.090909  0.090909  0.000000      6.000000
  0.181818  0.090909  0.000000     12.000000
  0.272727  0.090909  0.000000     12.000000
  0.363636  0.090909  0.000000     12.000000
  0.454545  0.090909  0.000000      6.000000
  0.181818  0.181818  0.000000      6.000000
  0.272727  0.181818  0.000000     12.000000
  0.363636  0.181818  0.000000     12.000000
  0.272727  0.272727  0.000000      6.000000
  0.363636  0.272727  0.000000      6.000000
  0.000000  0.000000  0.142857      2.000000
  0.090909  0.000000  0.142857     12.000000
  0.181818  0.000000  0.142857     12.000000
  0.272727  0.000000  0.142857     12.000000
  0.363636  0.000000  0.142857     12.000000
  0.454545  0.000000  0.142857     12.000000
  0.090909  0.090909  0.142857     12.000000
  0.181818  0.090909  0.142857     24.000000
  0.272727  0.090909  0.142857     24.000000
  0.363636  0.090909  0.142857     24.000000
  0.454545  0.090909  0.142857     12.000000
  0.181818  0.181818  0.142857     12.000000
  0.272727  0.181818  0.142857     24.000000
  0.363636  0.181818  0.142857     24.000000
  0.272727  0.272727  0.142857     12.000000
  0.363636  0.272727  0.142857     12.000000
  0.000000  0.000000  0.285714      2.000000
  0.090909  0.000000  0.285714     12.000000
  0.181818  0.000000  0.285714     12.000000
  0.272727  0.000000  0.285714     12.000000
  0.363636  0.000000  0.285714     12.000000
  0.454545  0.000000  0.285714     12.000000
  0.090909  0.090909  0.285714     12.000000
  0.181818  0.090909  0.285714     24.000000
  0.272727  0.090909  0.285714     24.000000
  0.363636  0.090909  0.285714     24.000000
  0.454545  0.090909  0.285714     12.000000
  0.181818  0.181818  0.285714     12.000000
  0.272727  0.181818  0.285714     24.000000
  0.363636  0.181818  0.285714     24.000000
  0.272727  0.272727  0.285714     12.000000
  0.363636  0.272727  0.285714     12.000000
  0.000000  0.000000  0.428571      2.000000
  0.090909  0.000000  0.428571     12.000000
  0.181818  0.000000  0.428571     12.000000
  0.272727  0.000000  0.428571     12.000000
  0.363636  0.000000  0.428571     12.000000
  0.454545  0.000000  0.428571     12.000000
  0.090909  0.090909  0.428571     12.000000
  0.181818  0.090909  0.428571     24.000000
  0.272727  0.090909  0.428571     24.000000
  0.363636  0.090909  0.428571     24.000000
  0.454545  0.090909  0.428571     12.000000
  0.181818  0.181818  0.428571     12.000000
  0.272727  0.181818  0.428571     24.000000
  0.363636  0.181818  0.428571     24.000000
  0.272727  0.272727  0.428571     12.000000
  0.363636  0.272727  0.428571     12.000000
 
 Following cartesian coordinates:
            Coordinates               Weight
  0.000000  0.000000  0.000000      1.000000
  0.024680  0.014249  0.000000      6.000000
  0.049361  0.028498  0.000000      6.000000
  0.074041  0.042748  0.000000      6.000000
  0.098722  0.056997  0.000000      6.000000
  0.123402  0.071246  0.000000      6.000000
  0.024680  0.042748  0.000000      6.000000
  0.049361  0.056997  0.000000     12.000000
  0.074041  0.071246  0.000000     12.000000
  0.098722  0.085495  0.000000     12.000000
  0.123402  0.099745  0.000000      6.000000
  0.049361  0.085495  0.000000      6.000000
  0.074041  0.099745  0.000000     12.000000
  0.098722  0.113994  0.000000     12.000000
  0.074041  0.128243  0.000000      6.000000
  0.098722  0.142492  0.000000      6.000000
  0.000000  0.000000  0.027840      2.000000
  0.024680  0.014249  0.027840     12.000000
  0.049361  0.028498  0.027840     12.000000
  0.074041  0.042748  0.027840     12.000000
  0.098722  0.056997  0.027840     12.000000
  0.123402  0.071246  0.027840     12.000000
  0.024680  0.042748  0.027840     12.000000
  0.049361  0.056997  0.027840     24.000000
  0.074041  0.071246  0.027840     24.000000
  0.098722  0.085495  0.027840     24.000000
  0.123402  0.099745  0.027840     12.000000
  0.049361  0.085495  0.027840     12.000000
  0.074041  0.099745  0.027840     24.000000
  0.098722  0.113994  0.027840     24.000000
  0.074041  0.128243  0.027840     12.000000
  0.098722  0.142492  0.027840     12.000000
  0.000000  0.000000  0.055679      2.000000
  0.024680  0.014249  0.055679     12.000000
  0.049361  0.028498  0.055679     12.000000
  0.074041  0.042748  0.055679     12.000000
  0.098722  0.056997  0.055679     12.000000
  0.123402  0.071246  0.055679     12.000000
  0.024680  0.042748  0.055679     12.000000
  0.049361  0.056997  0.055679     24.000000
  0.074041  0.071246  0.055679     24.000000
  0.098722  0.085495  0.055679     24.000000
  0.123402  0.099745  0.055679     12.000000
  0.049361  0.085495  0.055679     12.000000
  0.074041  0.099745  0.055679     24.000000
  0.098722  0.113994  0.055679     24.000000
  0.074041  0.128243  0.055679     12.000000
  0.098722  0.142492  0.055679     12.000000
  0.000000  0.000000  0.083519      2.000000
  0.024680  0.014249  0.083519     12.000000
  0.049361  0.028498  0.083519     12.000000
  0.074041  0.042748  0.083519     12.000000
  0.098722  0.056997  0.083519     12.000000
  0.123402  0.071246  0.083519     12.000000
  0.024680  0.042748  0.083519     12.000000
  0.049361  0.056997  0.083519     24.000000
  0.074041  0.071246  0.083519     24.000000
  0.098722  0.085495  0.083519     24.000000
  0.123402  0.099745  0.083519     12.000000
  0.049361  0.085495  0.083519     12.000000
  0.074041  0.099745  0.083519     24.000000
  0.098722  0.113994  0.083519     24.000000
  0.074041  0.128243  0.083519     12.000000
  0.098722  0.142492  0.083519     12.000000
 


--------------------------------------------------------------------------------------------------------




 Dimension of arrays:
   k-points           NKPTS =     64   k-points in BZ     NKDIM =     64   number of bands    NBANDS=     20
   number of dos      NEDOS =    301   number of ions     NIONS =      4
   non local maximal  LDIM  =      6   non local SUM 2l+1 LMDIM =     18
   total plane-waves  NPLWV =   6144
   max r-space proj   IRMAX =      1   max aug-charges    IRDMAX=   4165
   dimension x,y,z NGX =    16 NGY =   16 NGZ =   24
   dimension x,y,z NGXF=    32 NGYF=   32 NGZF=   48
   support grid    NGXF=    32 NGYF=   32 NGZF=   48
   ions per type =               2   2
 NGX,Y,Z   is equivalent  to a cutoff of   7.22,  7.22,  7.78 a.u.
 NGXF,Y,Z  is equivalent  to a cutoff of  14.44, 14.44, 15.55 a.u.


 I would recommend the setting:
   dimension x,y,z NGX =    15 NGY =   15 NGZ =   22
 SYSTEM =  Al2Cu2                                  
 POSCAR =  XYZ: Cu2Al2                             

 Startparameter for this run:
   NWRITE =      2    write-flag & timer
   PREC   = normal    normal or accurate (medium, high low for compatibility)
   ISTART =      0    job   : 0-new  1-cont  2-samecut
   ICHARG =      2    charge: 1-file 2-atom 10-const
   ISPIN  =      1    spin polarized calculation?
   LNONCOLLINEAR =      F non collinear calculations
   LSORBIT =      F    spin-orbit coupling
   INIWAV =      1    electr: 0-lowe 1-rand  2-diag
   LASPH  =      F    aspherical Exc in radial PAW
   METAGGA=      F    non-selfconsistent MetaGGA calc.

 Electronic Relaxation 1
   ENCUT  =  295.4 eV  21.71 Ry    4.66 a.u.   5.16  5.16  7.19*2*pi/ulx,y,z
   ENINI  =  295.4     initial cutoff
   ENAUG  =  587.0 eV  augmentation charge cutoff
   NELM   =     40;   NELMIN=  2; NELMDL=  0     # of ELM steps 
   EDIFF  = 0.1E-05   stopping-criterion for ELM
   LREAL  =      F    real-space projection
   NLSPLINE    = F    spline interpolate recip. space projectors
   LCOMPAT=      F    compatible to vasp.4.4
   GGA_COMPAT  = T    GGA compatible to vasp.4.4-vasp.4.6
   LMAXPAW     = -100 max onsite density
   LMAXMIX     =    2 max onsite mixed and CHGCAR
   VOSKOWN=      0    Vosko Wilk Nusair interpolation
   ROPT   =    0.00000   0.00000
 Ionic relaxation
   EDIFFG = 0.1E-04   stopping-criterion for IOM
   NSW    =     10    number of steps for IOM
   NBLOCK =      1;   KBLOCK =     10    inner block; outer block 
   IBRION =      2    ionic relax: 0-MD 1-quasi-New 2-CG
   NFREE  =      1    steps in history (QN), initial steepest desc. (CG)
   ISIF   =      3    stress and relaxation
   IWAVPR =     11    prediction:  0-non 1-charg 2-wave 3-comb
   ISYM   =      2    0-nonsym 1-usesym 2-fastsym
   LCORR  =      T    Harris-Foulkes like correction to forces

   POTIM  = 0.2500    time-step for ionic-motion
   TEIN   =    0.0    initial temperature
   TEBEG  =    0.0;   TEEND  =   0.0 temperature during run
   SMASS  =  -3.00    Nose mass-parameter (am)
   estimated Nose-frequenzy (Omega)   =  0.10E-29 period in steps =****** mass=  -0.310E-27a.u.
   SCALEE = 1.0000    scale energy and forces
   NPACO  =    256;   APACO  = 16.0  distance and # of slots for P.C.
   PSTRESS=    0.0 pullay stress

  Mass of Ions in am
   POMASS =  63.55 26.98
  Ionic Valenz
   ZVAL   =  11.00  3.00
  Atomic Wigner-Seitz radii
   RWIGS  =  -1.00 -1.00
  virtual crystal weights 
   VCA    =   1.00  1.00
   NELECT =      28.0000    total number of electrons
   NUPDOWN=      -1.0000    fix difference up-down

 DOS related values:
   EMIN   =  10.00;   EMAX   =-10.00  energy-range for DOS
   EFERMI =   0.00
   ISMEAR =     1;   SIGMA  =   0.20  broadening in eV -4-tet -1-fermi 0-gaus

 Electronic relaxation 2 (details)
   IALGO  =     68    algorithm
   LDIAG  =      T    sub-space diagonalisation (order eigenvalues)
   LSUBROT=      T    optimize rotation matrix (better conditioning)
   TURBO    =      0    0=normal 1=particle mesh
   IRESTART =      0    0=no restart 2=restart with 2 vectors
   NREBOOT  =      0    no. of reboots
   NMIN     =      0    reboot dimension
   EREF     =   0.00    reference energy to select bands
   IMIX   =      4    mixing-type and parameters
     AMIX     =   0.40;   BMIX     =  1.00
     AMIX_MAG =   1.60;   BMIX_MAG =  1.00
     AMIN     =   0.10
     WC   =   100.;   INIMIX=   1;  MIXPRE=   1

 Intra band minimization:
   WEIMIN = 0.0010     energy-eigenvalue tresh-hold
   EBREAK =  0.12E-07  absolut break condition
   DEPER  =   0.30     relativ break condition  

   TIME   =   0.40     timestep for ELM

  volume/ion in A,a.u.               =      15.07       101.72
  Fermi-wavevector in a.u.,A,eV,Ry     =   1.267751  2.395703 21.867198  1.607194
  Thomas-Fermi vector in A             =   2.400883
 
 Write flags
   LWAVE  =      F    write WAVECAR
   LCHARG =      F    write CHGCAR
   LVTOT  =      F    write LOCPOT, total local potential
   LVHAR  =      F    write LOCPOT, Hartree potential only
   LELF   =      F    write electronic localiz. function (ELF)
   LORBIT =      0    0 simple, 1 ext, 2 COOP (PROOUT)


 Dipole corrections
   LMONO  =      F    monopole corrections only (constant potential shift)
   LDIPOL =      F    correct potential (dipole corrections)
   IDIPOL =      0    1-x, 2-y, 3-z, 4-all directions 
   EPSILON=  1.0000000 bulk dielectric constant

 Exchange correlation treatment:
   GGA     =    --    GGA type
   LEXCH   =     8    internal setting for exchange type
   VOSKOWN=      0    Vosko Wilk Nusair interpolation
   LHFCALC =     F    Hartree Fock is set to
   LHFONE  =     F    Hartree Fock one center treatment
   AEXX    =    0.0000 exact exchange contribution

 Linear response parameters
   LEPSILON=     F    determine dielectric tensor
   LRPA    =     F    only Hartree local field effects (RPA)
   LNABLA  =     F    use nabla operator in PAW spheres
   LVEL    =     F    velocity operator in full k-point grid
   LINTERFAST=   F  fast interpolation
   KINTER  =     0    interpolate to denser k-point grid
   CSHIFT  =0.1000    complex shift for real part using Kramers Kronig
   OMEGAMAX=  -1.0    maximum frequency
   RTIME   =    0.100 relaxation time in fs

 Orbital magnetization related:
   ORBITALMAG=     F  switch on orbital magnetization
   LCHIMAG   =     F  perturbation theory with respect to B field
   DQ        =  0.001000  dq finite difference perturbation B field



--------------------------------------------------------------------------------------------------------


 conjugate gradient relaxation of ions
 charge density and potential will be updated during run
 non-spin polarized calculation
 RMM-DIIS sequential band-by-band and
  variant of blocked Davidson during initial phase
 perform sub-space diagonalisation
    before iterative eigenvector-optimisation
 modified Broyden-mixing scheme, WC =      100.0
 initial mixing is a Kerker type mixing with AMIX =  0.4000 and BMIX =      1.0000
 Hartree-type preconditioning will be used
 using additional bands            6
 reciprocal scheme for non local part
 use partial core corrections
 calculate Harris-corrections to forces 
   (improved forces if not selfconsistent)
 use gradient corrections 
 use of overlap-Matrix (Vanderbilt PP)
 Methfessel and Paxton  Order N= 1 SIGMA  =   0.20


--------------------------------------------------------------------------------------------------------


  energy-cutoff  :      295.45
  volume of cell :       60.29
      direct lattice vectors                 reciprocal lattice vectors
     3.683455369  0.000000000  0.000000000     0.271484218  0.156741486  0.000000000
    -1.841727685  3.189965923  0.000000000     0.000000000  0.313482973  0.000000000
     0.000000000  0.000000000  5.131433957     0.000000000  0.000000000  0.194877301

  length of vectors
     3.683455369  3.683455369  5.131433957     0.313482973  0.313482973  0.194877301


 
 k-points in units of 2pi/SCALE and weight: Automatic mesh                          
   0.00000000  0.00000000  0.00000000       0.001
   0.02468038  0.01424923  0.00000000       0.007
   0.04936077  0.02849845  0.00000000       0.007
   0.07404115  0.04274768  0.00000000       0.007
   0.09872153  0.05699690  0.00000000       0.007
   0.12340192  0.07124613  0.00000000       0.007
   0.02468038  0.04274768  0.00000000       0.007
   0.04936077  0.05699690  0.00000000       0.014
   0.07404115  0.07124613  0.00000000       0.014
   0.09872153  0.08549536  0.00000000       0.014
   0.12340192  0.09974458  0.00000000       0.007
   0.04936077  0.08549536  0.00000000       0.007
   0.07404115  0.09974458  0.00000000       0.014
   0.09872153  0.11399381  0.00000000       0.014
   0.07404115  0.12824303  0.00000000       0.007
   0.09872153  0.14249226  0.00000000       0.007
   0.00000000  0.00000000  0.02783961       0.002
   0.02468038  0.01424923  0.02783961       0.014
   0.04936077  0.02849845  0.02783961       0.014
   0.07404115  0.04274768  0.02783961       0.014
   0.09872153  0.05699690  0.02783961       0.014
   0.12340192  0.07124613  0.02783961       0.014
   0.02468038  0.04274768  0.02783961       0.014
   0.04936077  0.05699690  0.02783961       0.028
   0.07404115  0.07124613  0.02783961       0.028
   0.09872153  0.08549536  0.02783961       0.028
   0.12340192  0.09974458  0.02783961       0.014
   0.04936077  0.08549536  0.02783961       0.014
   0.07404115  0.09974458  0.02783961       0.028
   0.09872153  0.11399381  0.02783961       0.028
   0.07404115  0.12824303  0.02783961       0.014
   0.09872153  0.14249226  0.02783961       0.014
   0.00000000  0.00000000  0.05567923       0.002
   0.02468038  0.01424923  0.05567923       0.014
   0.04936077  0.02849845  0.05567923       0.014
   0.07404115  0.04274768  0.05567923       0.014
   0.09872153  0.05699690  0.05567923       0.014
   0.12340192  0.07124613  0.05567923       0.014
   0.02468038  0.04274768  0.05567923       0.014
   0.04936077  0.05699690  0.05567923       0.028
   0.07404115  0.07124613  0.05567923       0.028
   0.09872153  0.08549536  0.05567923       0.028
   0.12340192  0.09974458  0.05567923       0.014
   0.04936077  0.08549536  0.05567923       0.014
   0.07404115  0.09974458  0.05567923       0.028
   0.09872153  0.11399381  0.05567923       0.028
   0.07404115  0.12824303  0.05567923       0.014
   0.09872153  0.14249226  0.05567923       0.014
   0.00000000  0.00000000  0.08351884       0.002
   0.02468038  0.01424923  0.08351884       0.014
   0.04936077  0.02849845  0.08351884       0.014
   0.07404115  0.04274768  0.08351884       0.014
   0.09872153  0.05699690  0.08351884       0.014
   0.12340192  0.07124613  0.08351884       0.014
   0.02468038  0.04274768  0.08351884       0.014
   0.04936077  0.05699690  0.08351884       0.028
   0.07404115  0.07124613  0.08351884       0.028
   0.09872153  0.08549536  0.08351884       0.028
   0.12340192  0.09974458  0.08351884       0.014
   0.04936077  0.08549536  0.08351884       0.014
   0.07404115  0.09974458  0.08351884       0.028
   0.09872153  0.11399381  0.08351884       0.028
   0.07404115  0.12824303  0.08351884       0.014
   0.09872153  0.14249226  0.08351884       0.014
 
 k-points in reciprocal lattice and weights: Automatic mesh                          
   0.00000000  0.00000000  0.00000000       0.001
   0.09090909  0.00000000  0.00000000       0.007
   0.18181818  0.00000000  0.00000000       0.007
   0.27272727  0.00000000  0.00000000       0.007
   0.36363636  0.00000000  0.00000000       0.007
   0.45454545  0.00000000  0.00000000       0.007
   0.09090909  0.09090909  0.00000000       0.007
   0.18181818  0.09090909  0.00000000       0.014
   0.27272727  0.09090909  0.00000000       0.014
   0.36363636  0.09090909  0.00000000       0.014
   0.45454545  0.09090909  0.00000000       0.007
   0.18181818  0.18181818  0.00000000       0.007
   0.27272727  0.18181818  0.00000000       0.014
   0.36363636  0.18181818  0.00000000       0.014
   0.27272727  0.27272727  0.00000000       0.007
   0.36363636  0.27272727  0.00000000       0.007
   0.00000000  0.00000000  0.14285714       0.002
   0.09090909  0.00000000  0.14285714       0.014
   0.18181818  0.00000000  0.14285714       0.014
   0.27272727  0.00000000  0.14285714       0.014
   0.36363636  0.00000000  0.14285714       0.014
   0.45454545  0.00000000  0.14285714       0.014
   0.09090909  0.09090909  0.14285714       0.014
   0.18181818  0.09090909  0.14285714       0.028
   0.27272727  0.09090909  0.14285714       0.028
   0.36363636  0.09090909  0.14285714       0.028
   0.45454545  0.09090909  0.14285714       0.014
   0.18181818  0.18181818  0.14285714       0.014
   0.27272727  0.18181818  0.14285714       0.028
   0.36363636  0.18181818  0.14285714       0.028
   0.27272727  0.27272727  0.14285714       0.014
   0.36363636  0.27272727  0.14285714       0.014
   0.00000000  0.00000000  0.28571429       0.002
   0.09090909  0.00000000  0.28571429       0.014
   0.18181818  0.00000000  0.28571429       0.014
   0.27272727  0.00000000  0.28571429       0.014
   0.36363636  0.00000000  0.28571429       0.014
   0.45454545  0.00000000  0.28571429       0.014
   0.09090909  0.09090909  0.28571429       0.014
   0.18181818  0.09090909  0.28571429       0.028
   0.27272727  0.09090909  0.28571429       0.028
   0.36363636  0.09090909  0.28571429       0.028
   0.45454545  0.09090909  0.28571429       0.014
   0.18181818  0.18181818  0.28571429       0.014
   0.27272727  0.18181818  0.28571429       0.028
   0.36363636  0.18181818  0.28571429       0.028
   0.27272727  0.27272727  0.28571429       0.014
   0.36363636  0.27272727  0.28571429       0.014
   0.00000000  0.00000000  0.42857143       0.002
   0.09090909  0.00000000  0.42857143       0.014
   0.18181818  0.00000000  0.42857143       0.014
   0.27272727  0.00000000  0.42857143       0.014
   0.36363636  0.00000000  0.42857143       0.014
   0.45454545  0.00000000  0.42857143       0.014
   0.09090909  0.09090909  0.42857143       0.014
   0.18181818  0.09090909  0.42857143       0.028
   0.27272727  0.09090909  0.42857143       0.028
   0.36363636  0.09090909  0.42857143       0.028
   0.45454545  0.09090909  0.42857143       0.014
   0.18181818  0.18181818  0.42857143       0.014
   0.27272727  0.18181818  0.42857143       0.028
   0.36363636  0.18181818  0.42857143       0.028
   0.27272727  0.27272727  0.42857143       0.014
   0.36363636  0.27272727  0.42857143       0.014
 
 position of ions in fractional coordinates (direct lattice) 
   0.00000000  0.00000000  0.00000000
   0.00000000  0.00000000  0.50000000
   0.33333333  0.66666667  0.25000000
   0.66666667  0.33333333  0.75000000
 
 position of ions in cartesian coordinates  (Angst):
   0.00000000  0.00000000  0.00000000
   0.00000000  0.00000000  2.56571698
  -0.00000002  2.12664396  1.28285849
   1.84172770  1.06332196  3.84857547
 


--------------------------------------------------------------------------------------------------------


 k-point  1 :  0.00000.00000.0000  plane waves:     699
 k-point  2 :  0.09090.00000.0000  plane waves:     691
 k-point  3 :  0.18180.00000.0000  plane waves:     683
 k-point  4 :  0.27270.00000.0000  plane waves:     693
 k-point  5 :  0.36360.00000.0000  plane waves:     697
 k-point  6 :  0.45450.00000.0000  plane waves:     697
 k-point  7 :  0.09090.09090.0000  plane waves:     685
 k-point  8 :  0.18180.09090.0000  plane waves:     691
 k-point  9 :  0.27270.09090.0000  plane waves:     695
 k-point 10 :  0.36360.09090.0000  plane waves:     705
 k-point 11 :  0.45450.09090.0000  plane waves:     698
 k-point 12 :  0.18180.18180.0000  plane waves:     697
 k-point 13 :  0.27270.18180.0000  plane waves:     695
 k-point 14 :  0.36360.18180.0000  plane waves:     706
 k-point 15 :  0.27270.27270.0000  plane waves:     697
 k-point 16 :  0.36360.27270.0000  plane waves:     691
 k-point 17 :  0.00000.00000.1429  plane waves:     693
 k-point 18 :  0.09090.00000.1429  plane waves:     688
 k-point 19 :  0.18180.00000.1429  plane waves:     688
 k-point 20 :  0.27270.00000.1429  plane waves:     688
 k-point 21 :  0.36360.00000.1429  plane waves:     691
 k-point 22 :  0.45450.00000.1429  plane waves:     700
 k-point 23 :  0.09090.09090.1429  plane waves:     691
 k-point 24 :  0.18180.09090.1429  plane waves:     690
 k-point 25 :  0.27270.09090.1429  plane waves:     694
 k-point 26 :  0.36360.09090.1429  plane waves:     703
 k-point 27 :  0.45450.09090.1429  plane waves:     699
 k-point 28 :  0.18180.18180.1429  plane waves:     692
 k-point 29 :  0.27270.18180.1429  plane waves:     698
 k-point 30 :  0.36360.18180.1429  plane waves:     694
 k-point 31 :  0.27270.27270.1429  plane waves:     698
 k-point 32 :  0.36360.27270.1429  plane waves:     697
 k-point 33 :  0.00000.00000.2857  plane waves:     686
 k-point 34 :  0.09090.00000.2857  plane waves:     688
 k-point 35 :  0.18180.00000.2857  plane waves:     693
 k-point 36 :  0.27270.00000.2857  plane waves:     698
 k-point 37 :  0.36360.00000.2857  plane waves:     698
 k-point 38 :  0.45450.00000.2857  plane waves:     699
 k-point 39 :  0.09090.09090.2857  plane waves:     691
 k-point 40 :  0.18180.09090.2857  plane waves:     693
 k-point 41 :  0.27270.09090.2857  plane waves:     699
 k-point 42 :  0.36360.09090.2857  plane waves:     694
 k-point 43 :  0.45450.09090.2857  plane waves:     698
 k-point 44 :  0.18180.18180.2857  plane waves:     691
 k-point 45 :  0.27270.18180.2857  plane waves:     698
 k-point 46 :  0.36360.18180.2857  plane waves:     695
 k-point 47 :  0.27270.27270.2857  plane waves:     696
 k-point 48 :  0.36360.27270.2857  plane waves:     699
 k-point 49 :  0.00000.00000.4286  plane waves:     698
 k-point 50 :  0.09090.00000.4286  plane waves:     689
 k-point 51 :  0.18180.00000.4286  plane waves:     692
 k-point 52 :  0.27270.00000.4286  plane waves:     706
 k-point 53 :  0.36360.00000.4286  plane waves:     701
 k-point 54 :  0.45450.00000.4286  plane waves:     703
 k-point 55 :  0.09090.09090.4286  plane waves:     693
 k-point 56 :  0.18180.09090.4286  plane waves:     698
 k-point 57 :  0.27270.09090.4286  plane waves:     699
 k-point 58 :  0.36360.09090.4286  plane waves:     698
 k-point 59 :  0.45450.09090.4286  plane waves:     696
 k-point 60 :  0.18180.18180.4286  plane waves:     694
 k-point 61 :  0.27270.18180.4286  plane waves:     695
 k-point 62 :  0.36360.18180.4286  plane waves:     697
 k-point 63 :  0.27270.27270.4286  plane waves:     688
 k-point 64 :  0.36360.27270.4286  plane waves:     687

 maximum and minimum number of plane-waves per node :       706      683

 maximum number of plane-waves:       706
 maximum index in each direction: 
   IXMAX=    5   IYMAX=    5   IZMAX=    7
   IXMIN=   -5   IYMIN=   -5   IZMIN=   -7

 WARNING: aliasing errors must be expected set NGX to  22 to avoid them
 WARNING: aliasing errors must be expected set NGY to  22 to avoid them
 WARNING: aliasing errors must be expected set NGZ to  30 to avoid them
 aliasing errors are usually negligible using standard VASP settings
 and one can safely disregard these warnings

 serial   3D FFT for wavefunctions
 parallel 3D FFT for charge:
    minimum data exchange during FFTs selected (reduces bandwidth)


 total amount of memory used by VASP on root node    48458. kBytes
========================================================================

   base      :      30000. kBytes
   nonl-proj :      13095. kBytes
   fftplans  :        452. kBytes
   grid      :        958. kBytes
   one-center:         62. kBytes
   wavefun   :       3891. kBytes
 
 Broyden mixing: mesh for mixing (old mesh)
   NGX = 11   NGY = 11   NGZ = 15
  (NGX  = 32   NGY  = 32   NGZ  = 48)
  gives a total of   1815 points

 initial charge density was supplied:
 charge density of overlapping atoms calculated
 number of electron      28.0000000 magnetization 
 keeping initial charge density in first step


--------------------------------------------------------------------------------------------------------


 Maximum index for augmentation-charges          953 (set IRDMAX)


--------------------------------------------------------------------------------------------------------


 First call to EWALD:  gamma=   0.452
 Maximum number of real-space cells 3x 3x 2
 Maximum number of reciprocal cells 3x 3x 3

    FEWALD:  cpu time    0.00: real time    0.00


----------------------------------------- Iteration    1(   1)  ---------------------------------------


    POTLOK:  cpu time    0.00: real time    0.01
    SETDIJ:  cpu time    0.01: real time    0.00
     EDDAV:  cpu time    0.43: real time    0.43
       DOS:  cpu time    0.00: real time    0.00
    --------------------------------------------
      LOOP:  cpu time    0.45: real time    0.45

 eigenvalue-minimisations  :  2576
 total energy-change (2. order) : 0.1352529E+03  (-0.8537943E+03)
 number of electron      28.0000000 magnetization 
 augmentation part       28.0000000 magnetization 

 Free energy of the ion-electron system (eV)
  ---------------------------------------------------
  alpha Z        PSCENC =        60.70878244
  Ewald energy   TEWEN  =     -1893.97467813
  -1/2 Hartree   DENC   =     -1101.53785505
  -exchange  EXHF       =         0.00000000
  -V(xc)+E(xc)   XCENC  =        39.09046198
  PAW double counting   =      2588.81363401    -2736.58817577
  entropy T*S    EENTRO =         0.00924003
  eigenvalues    EBANDS =       289.78523599
  atomic energy  EATOM  =      2888.94626590
  ---------------------------------------------------
  free energy    TOTEN  =       135.25291141 eV

  energy without entropy =      135.24367137  energy(sigma->0) =      135.24983140


--------------------------------------------------------------------------------------------------------




----------------------------------------- Iteration    1(   2)  ---------------------------------------


     EDDAV:  cpu time    0.43: real time    0.43
       DOS:  cpu time    0.00: real time    0.00
    --------------------------------------------
      LOOP:  cpu time    0.43: real time    0.43

 eigenvalue-minimisations  :  2576
 total energy-change (2. order) :-0.1486682E+03  (-0.1418890E+03)
 number of electron      28.0000000 magnetization 
 augmentation part       28.0000000 magnetization 

 Free energy of the ion-electron system (eV)
  ---------------------------------------------------
  alpha Z        PSCENC =        60.70878244
  Ewald energy   TEWEN  =     -1893.97467813
  -1/2 Hartree   DENC   =     -1101.53785505
  -exchange  EXHF       =         0.00000000
  -V(xc)+E(xc)   XCENC  =        39.09046198
  PAW double counting   =      2588.81363401    -2736.58817577
  entropy T*S    EENTRO =        -0.00594619
  eigenvalues    EBANDS =       141.13217624
  atomic energy  EATOM  =      2888.94626590
  ---------------------------------------------------
  free energy    TOTEN  =       -13.41533456 eV

  energy without entropy =      -13.40938838  energy(sigma->0) =      -13.41335250


--------------------------------------------------------------------------------------------------------




----------------------------------------- Iteration    1(   3)  ---------------------------------------


     EDDAV:  cpu time    0.51: real time    0.50
       DOS:  cpu time    0.00: real time    0.00
    --------------------------------------------
      LOOP:  cpu time    0.51: real time    0.51

 eigenvalue-minimisations  :  3152
 total energy-change (2. order) :-0.5130201E+01  (-0.5002034E+01)
 number of electron      28.0000000 magnetization 
 augmentation part       28.0000000 magnetization 

 Free energy of the ion-electron system (eV)
  ---------------------------------------------------
  alpha Z        PSCENC =        60.70878244
  Ewald energy   TEWEN  =     -1893.97467813
  -1/2 Hartree   DENC   =     -1101.53785505
  -exchange  EXHF       =         0.00000000
  -V(xc)+E(xc)   XCENC  =        39.09046198
  PAW double counting   =      2588.81363401    -2736.58817577
  entropy T*S    EENTRO =        -0.00486892
  eigenvalues    EBANDS =       136.00089803
  atomic energy  EATOM  =      2888.94626590
  ---------------------------------------------------
  free energy    TOTEN  =       -18.54553551 eV

  energy without entropy =      -18.54066658  energy(sigma->0) =      -18.54391253


--------------------------------------------------------------------------------------------------------




----------------------------------------- Iteration    1(   4)  ---------------------------------------


     EDDAV:  cpu time    0.51: real time    0.52
       DOS:  cpu time    0.01: real time    0.00
    --------------------------------------------
      LOOP:  cpu time    0.52: real time    0.52

 eigenvalue-minimisations  :  3516
 total energy-change (2. order) :-0.1089887E+00  (-0.1088392E+00)
 number of electron      28.0000000 magnetization 
 augmentation part       28.0000000 magnetization 

 Free energy of the ion-electron system (eV)
  ---------------------------------------------------
  alpha Z        PSCENC =        60.70878244
  Ewald energy   TEWEN  =     -1893.97467813
  -1/2 Hartree   DENC   =     -1101.53785505
  -exchange  EXHF       =         0.00000000
  -V(xc)+E(xc)   XCENC  =        39.09046198
  PAW double counting   =      2588.81363401    -2736.58817577
  entropy T*S    EENTRO =        -0.00456681
  eigenvalues    EBANDS =       135.89160721
  atomic energy  EATOM  =      2888.94626590
  ---------------------------------------------------
  free energy    TOTEN  =       -18.65452421 eV

  energy without entropy =      -18.64995741  energy(sigma->0) =      -18.65300195


--------------------------------------------------------------------------------------------------------




----------------------------------------- Iteration    1(   5)  ---------------------------------------


     EDDAV:  cpu time    0.51: real time    0.52
       DOS:  cpu time    0.01: real time    0.00
    CHARGE:  cpu time    0.02: real time    0.03
    MIXING:  cpu time    0.00: real time    0.00
    --------------------------------------------
      LOOP:  cpu time    0.54: real time    0.55

 eigenvalue-minimisations  :  3432
 total energy-change (2. order) :-0.3277218E-02  (-0.3276956E-02)
 number of electron      27.9999868 magnetization 
 augmentation part       11.9077887 magnetization 

 Broyden mixing:
  rms(total) = 0.18148E+01    rms(broyden)= 0.18146E+01
  rms(prec ) = 0.34191E+01
  weight for this iteration     100.00

 Free energy of the ion-electron system (eV)
  ---------------------------------------------------
  alpha Z        PSCENC =        60.70878244
  Ewald energy   TEWEN  =     -1893.97467813
  -1/2 Hartree   DENC   =     -1101.53785505
  -exchange  EXHF       =         0.00000000
  -V(xc)+E(xc)   XCENC  =        39.09046198
  PAW double counting   =      2588.81363401    -2736.58817577
  entropy T*S    EENTRO =        -0.00455868
  eigenvalues    EBANDS =       135.88832186
  atomic energy  EATOM  =      2888.94626590
  ---------------------------------------------------
  free energy    TOTEN  =       -18.65780143 eV

  energy without entropy =      -18.65324275  energy(sigma->0) =      -18.65628187


--------------------------------------------------------------------------------------------------------




----------------------------------------- Iteration    1(   6)  ---------------------------------------


    POTLOK:  cpu time    0.01: real time    0.01
    SETDIJ:  cpu time    0.00: real time    0.00
    EDDIAG:  cpu time    0.09: real time    0.09
  RMM-DIIS:  cpu time    0.24: real time    0.24
    ORTHCH:  cpu time    0.02: real time    0.02
       DOS:  cpu time    0.00: real time    0.00
    CHARGE:  cpu time    0.03: real time    0.03
    MIXING:  cpu time    0.00: real time    0.00
    --------------------------------------------
      LOOP:  cpu time    0.39: real time    0.39

 eigenvalue-minimisations  :  2573
 total energy-change (2. order) :-0.2717780E+01  (-0.7485339E+01)
 number of electron      27.9999814 magnetization 
 augmentation part       15.4536767 magnetization 

 Broyden mixing:
  rms(total) = 0.15054E+01    rms(broyden)= 0.15051E+01
  rms(prec ) = 0.28048E+01
  weight for this iteration     100.00

 eigenvalues of (default mixing * dielectric matrix)
  average eigenvalue GAMMA=   0.5470
  0.5470

 Free energy of the ion-electron system (eV)
  ---------------------------------------------------
  alpha Z        PSCENC =        60.70878244
  Ewald energy   TEWEN  =     -1893.97467813
  -1/2 Hartree   DENC   =      -988.06801134
  -exchange  EXHF       =         0.00000000
  -V(xc)+E(xc)   XCENC  =        34.41525062
  PAW double counting   =      2633.04119725    -2758.75859385
  entropy T*S    EENTRO =         0.00542276
  eigenvalues    EBANDS =         2.30878293
  atomic energy  EATOM  =      2888.94626590
  ---------------------------------------------------
  free energy    TOTEN  =       -21.37558142 eV

  energy without entropy =      -21.38100418  energy(sigma->0) =      -21.37738901


--------------------------------------------------------------------------------------------------------




----------------------------------------- Iteration    1(   7)  ---------------------------------------


    POTLOK:  cpu time    0.01: real time    0.01
    SETDIJ:  cpu time    0.00: real time    0.00
    EDDIAG:  cpu time    0.08: real time    0.09
  RMM-DIIS:  cpu time    0.24: real time    0.24
    ORTHCH:  cpu time    0.02: real time    0.02
       DOS:  cpu time    0.00: real time    0.00
    CHARGE:  cpu time    0.03: real time    0.03
    MIXING:  cpu time    0.00: real time    0.00
    --------------------------------------------
      LOOP:  cpu time    0.38: real time    0.38

 eigenvalue-minimisations  :  2560
 total energy-change (2. order) : 0.6213339E+01  (-0.1745127E+01)
 number of electron      27.9999831 magnetization 
 augmentation part       14.0453008 magnetization 

 Broyden mixing:
  rms(total) = 0.20081E+00    rms(broyden)= 0.20051E+00
  rms(prec ) = 0.43092E+00
  weight for this iteration     100.00

 eigenvalues of (default mixing * dielectric matrix)
  average eigenvalue GAMMA=   0.9502
  0.5979  1.3024

 Free energy of the ion-electron system (eV)
  ---------------------------------------------------
  alpha Z        PSCENC =        60.70878244
  Ewald energy   TEWEN  =     -1893.97467813
  -1/2 Hartree   DENC   =     -1038.41789877
  -exchange  EXHF       =         0.00000000
  -V(xc)+E(xc)   XCENC  =        36.54949625
  PAW double counting   =      2766.45334607    -2911.92824280
  entropy T*S    EENTRO =         0.00621474
  eigenvalues    EBANDS =        76.49447235
  atomic energy  EATOM  =      2888.94626590
  ---------------------------------------------------
  free energy    TOTEN  =       -15.16224194 eV

  energy without entropy =      -15.16845669  energy(sigma->0) =      -15.16431353


--------------------------------------------------------------------------------------------------------




----------------------------------------- Iteration    1(   8)  ---------------------------------------


    POTLOK:  cpu time    0.00: real time    0.01
    SETDIJ:  cpu time    0.01: real time    0.00
    EDDIAG:  cpu time    0.08: real time    0.08
  RMM-DIIS:  cpu time    0.24: real time    0.24
    ORTHCH:  cpu time    0.01: real time    0.02
       DOS:  cpu time    0.01: real time    0.00
    CHARGE:  cpu time    0.02: real time    0.03
    MIXING:  cpu time    0.00: real time    0.00
    --------------------------------------------
      LOOP:  cpu time    0.37: real time    0.38

 eigenvalue-minimisations  :  2573
 total energy-change (2. order) : 0.1142520E+00  (-0.1332748E+00)
 number of electron      27.9999834 magnetization 
 augmentation part       13.7658870 magnetization 

 Broyden mixing:
  rms(total) = 0.10174E+00    rms(broyden)= 0.10164E+00
  rms(prec ) = 0.17746E+00
  weight for this iteration     100.00

 eigenvalues of (default mixing * dielectric matrix)
  average eigenvalue GAMMA=   1.2088
  2.1171  0.7943  0.7151

 Free energy of the ion-electron system (eV)
  ---------------------------------------------------
  alpha Z        PSCENC =        60.70878244
  Ewald energy   TEWEN  =     -1893.97467813
  -1/2 Hartree   DENC   =     -1046.53292606
  -exchange  EXHF       =         0.00000000
  -V(xc)+E(xc)   XCENC  =        36.84631066
  PAW double counting   =      2869.98755636    -3020.35729075
  entropy T*S    EENTRO =         0.00611073
  eigenvalues    EBANDS =        89.32187892
  atomic energy  EATOM  =      2888.94626590
  ---------------------------------------------------
  free energy    TOTEN  =       -15.04798993 eV

  energy without entropy =      -15.05410066  energy(sigma->0) =      -15.05002684


--------------------------------------------------------------------------------------------------------




----------------------------------------- Iteration    1(   9)  ---------------------------------------


    POTLOK:  cpu time    0.01: real time    0.01
    SETDIJ:  cpu time    0.01: real time    0.00
    EDDIAG:  cpu time    0.08: real time    0.09
  RMM-DIIS:  cpu time    0.24: real time    0.24
    ORTHCH:  cpu time    0.02: real time    0.02
       DOS:  cpu time    0.00: real time    0.00
    CHARGE:  cpu time    0.03: real time    0.03
    MIXING:  cpu time    0.00: real time    0.00
    --------------------------------------------
      LOOP:  cpu time    0.39: real time    0.39

 eigenvalue-minimisations  :  2569
 total energy-change (2. order) : 0.1269568E-01  (-0.9604392E-02)
 number of electron      27.9999834 magnetization 
 augmentation part       13.8005836 magnetization 

 Broyden mixing:
  rms(total) = 0.16581E-01    rms(broyden)= 0.16559E-01
  rms(prec ) = 0.28622E-01
  weight for this iteration     100.00

 eigenvalues of (default mixing * dielectric matrix)
  average eigenvalue GAMMA=   1.3321
  2.3360  0.6874  0.8765  1.4284

 Free energy of the ion-electron system (eV)
  ---------------------------------------------------
  alpha Z        PSCENC =        60.70878244
  Ewald energy   TEWEN  =     -1893.97467813
  -1/2 Hartree   DENC   =     -1043.38237966
  -exchange  EXHF       =         0.00000000
  -V(xc)+E(xc)   XCENC  =        36.68239104
  PAW double counting   =      3007.49219479    -3159.90883183
  entropy T*S    EENTRO =         0.00620016
  eigenvalues    EBANDS =        88.39476104
  atomic energy  EATOM  =      2888.94626590
  ---------------------------------------------------
  free energy    TOTEN  =       -15.03529425 eV

  energy without entropy =      -15.04149441  energy(sigma->0) =      -15.03736097


--------------------------------------------------------------------------------------------------------




----------------------------------------- Iteration    1(  10)  ---------------------------------------


    POTLOK:  cpu time    0.01: real time    0.01
    SETDIJ:  cpu time    0.00: real time    0.00
    EDDIAG:  cpu time    0.09: real time    0.08
  RMM-DIIS:  cpu time    0.24: real time    0.24
    ORTHCH:  cpu time    0.01: real time    0.02
       DOS:  cpu time    0.00: real time    0.00
    CHARGE:  cpu time    0.03: real time    0.03
    MIXING:  cpu time    0.00: real time    0.00
    --------------------------------------------
      LOOP:  cpu time    0.38: real time    0.38

 eigenvalue-minimisations  :  2598
 total energy-change (2. order) :-0.4918645E-03  (-0.6571396E-03)
 number of electron      27.9999834 magnetization 
 augmentation part       13.8114552 magnetization 

 Broyden mixing:
  rms(total) = 0.83738E-02    rms(broyden)= 0.83601E-02
  rms(prec ) = 0.14283E-01
  weight for this iteration     100.00

 eigenvalues of (default mixing * dielectric matrix)
  average eigenvalue GAMMA=   1.5440
  0.6965  0.8186  1.0449  2.5801  2.5801

 Free energy of the ion-electron system (eV)
  ---------------------------------------------------
  alpha Z        PSCENC =        60.70878244
  Ewald energy   TEWEN  =     -1893.97467813
  -1/2 Hartree   DENC   =     -1043.10909958
  -exchange  EXHF       =         0.00000000
  -V(xc)+E(xc)   XCENC  =        36.68139623
  PAW double counting   =      3013.55481971    -3166.01992556
  entropy T*S    EENTRO =         0.00620509
  eigenvalues    EBANDS =        88.17044778
  atomic energy  EATOM  =      2888.94626590
  ---------------------------------------------------
  free energy    TOTEN  =       -15.03578612 eV

  energy without entropy =      -15.04199121  energy(sigma->0) =      -15.03785448


--------------------------------------------------------------------------------------------------------




----------------------------------------- Iteration    1(  11)  ---------------------------------------


    POTLOK:  cpu time    0.01: real time    0.01
    SETDIJ:  cpu time    0.00: real time    0.00
    EDDIAG:  cpu time    0.09: real time    0.08
  RMM-DIIS:  cpu time    0.24: real time    0.25
    ORTHCH:  cpu time    0.02: real time    0.02
       DOS:  cpu time    0.00: real time    0.00
    CHARGE:  cpu time    0.03: real time    0.03
    MIXING:  cpu time    0.00: real time    0.00
    --------------------------------------------
      LOOP:  cpu time    0.39: real time    0.39

 eigenvalue-minimisations  :  2591
 total energy-change (2. order) :-0.1421708E-03  (-0.9149792E-04)
 number of electron      27.9999834 magnetization 
 augmentation part       13.8036427 magnetization 

 Broyden mixing:
  rms(total) = 0.11828E-01    rms(broyden)= 0.11818E-01
  rms(prec ) = 0.21607E-01
  weight for this iteration     100.00

 eigenvalues of (default mixing * dielectric matrix)
  average eigenvalue GAMMA=   1.4473
  2.7184  2.2567  0.6890  0.9130  0.9130  1.1936

 Free energy of the ion-electron system (eV)
  ---------------------------------------------------
  alpha Z        PSCENC =        60.70878244
  Ewald energy   TEWEN  =     -1893.97467813
  -1/2 Hartree   DENC   =     -1043.26798027
  -exchange  EXHF       =         0.00000000
  -V(xc)+E(xc)   XCENC  =        36.70483300
  PAW double counting   =      3007.51774338    -3159.99526680
  entropy T*S    EENTRO =         0.00619595
  eigenvalues    EBANDS =        88.31817624
  atomic energy  EATOM  =      2888.94626590
  ---------------------------------------------------
  free energy    TOTEN  =       -15.03592829 eV

  energy without entropy =      -15.04212424  energy(sigma->0) =      -15.03799360


--------------------------------------------------------------------------------------------------------




----------------------------------------- Iteration    1(  12)  ---------------------------------------


    POTLOK:  cpu time    0.01: real time    0.01
    SETDIJ:  cpu time    0.00: real time    0.00
    EDDIAG:  cpu time    0.08: real time    0.08
  RMM-DIIS:  cpu time    0.23: real time    0.23
    ORTHCH:  cpu time    0.01: real time    0.02
       DOS:  cpu time    0.01: real time    0.00
    CHARGE:  cpu time    0.02: real time    0.03
    MIXING:  cpu time    0.00: real time    0.00
    --------------------------------------------
      LOOP:  cpu time    0.36: real time    0.36

 eigenvalue-minimisations  :  2581
 total energy-change (2. order) : 0.2285280E-03  (-0.5444447E-04)
 number of electron      27.9999834 magnetization 
 augmentation part       13.8144830 magnetization 

 Broyden mixing:
  rms(total) = 0.15849E-02    rms(broyden)= 0.15100E-02
  rms(prec ) = 0.26259E-02
  weight for this iteration     100.00

 eigenvalues of (default mixing * dielectric matrix)
  average eigenvalue GAMMA=   1.3189
  2.7278  2.3354  0.6914  0.8567  1.0105  1.1588  0.4520

 Free energy of the ion-electron system (eV)
  ---------------------------------------------------
  alpha Z        PSCENC =        60.70878244
  Ewald energy   TEWEN  =     -1893.97467813
  -1/2 Hartree   DENC   =     -1042.92889434
  -exchange  EXHF       =         0.00000000
  -V(xc)+E(xc)   XCENC  =        36.68953172
  PAW double counting   =      3008.84311745    -3161.25645938
  entropy T*S    EENTRO =         0.00620911
  eigenvalues    EBANDS =        87.93042547
  atomic energy  EATOM  =      2888.94626590
  ---------------------------------------------------
  free energy    TOTEN  =       -15.03569976 eV

  energy without entropy =      -15.04190887  energy(sigma->0) =      -15.03776946


--------------------------------------------------------------------------------------------------------




----------------------------------------- Iteration    1(  13)  ---------------------------------------


    POTLOK:  cpu time    0.01: real time    0.01
    SETDIJ:  cpu time    0.00: real time    0.00
    EDDIAG:  cpu time    0.08: real time    0.08
  RMM-DIIS:  cpu time    0.24: real time    0.23
    ORTHCH:  cpu time    0.01: real time    0.02
       DOS:  cpu time    0.00: real time    0.00
    CHARGE:  cpu time    0.03: real time    0.03
    MIXING:  cpu time    0.00: real time    0.00
    --------------------------------------------
      LOOP:  cpu time    0.37: real time    0.37

 eigenvalue-minimisations  :  2614
 total energy-change (2. order) :-0.2480900E-05  (-0.2570056E-05)
 number of electron      27.9999834 magnetization 
 augmentation part       13.8140455 magnetization 

 Broyden mixing:
  rms(total) = 0.19919E-02    rms(broyden)= 0.19346E-02
  rms(prec ) = 0.33274E-02
  weight for this iteration     100.00

 eigenvalues of (default mixing * dielectric matrix)
  average eigenvalue GAMMA=   1.3809
  2.6871  2.5234  1.1314  1.1314  0.6876  1.1133  0.8866  0.8866

 Free energy of the ion-electron system (eV)
  ---------------------------------------------------
  alpha Z        PSCENC =        60.70878244
  Ewald energy   TEWEN  =     -1893.97467813
  -1/2 Hartree   DENC   =     -1042.94630383
  -exchange  EXHF       =         0.00000000
  -V(xc)+E(xc)   XCENC  =        36.69045492
  PAW double counting   =      3008.25748095    -3160.65993442
  entropy T*S    EENTRO =         0.00620903
  eigenvalues    EBANDS =        87.93602091
  atomic energy  EATOM  =      2888.94626590
  ---------------------------------------------------
  free energy    TOTEN  =       -15.03570224 eV

  energy without entropy =      -15.04191127  energy(sigma->0) =      -15.03777192


--------------------------------------------------------------------------------------------------------




----------------------------------------- Iteration    1(  14)  ---------------------------------------


    POTLOK:  cpu time    0.01: real time    0.01
    SETDIJ:  cpu time    0.00: real time    0.00
    EDDIAG:  cpu time    0.08: real time    0.08
  RMM-DIIS:  cpu time    0.18: real time    0.18
    ORTHCH:  cpu time    0.01: real time    0.02
       DOS:  cpu time    0.00: real time    0.00
    CHARGE:  cpu time    0.03: real time    0.03
    MIXING:  cpu time    0.00: real time    0.00
    --------------------------------------------
      LOOP:  cpu time    0.31: real time    0.31

 eigenvalue-minimisations  :  1959
 total energy-change (2. order) : 0.2035866E-05  (-0.3372623E-06)
 number of electron      27.9999834 magnetization 
 augmentation part       13.8145271 magnetization 

 Broyden mixing:
  rms(total) = 0.16285E-02    rms(broyden)= 0.15578E-02
  rms(prec ) = 0.26764E-02
  weight for this iteration     100.00

 eigenvalues of (default mixing * dielectric matrix)
  average eigenvalue GAMMA=   1.5194
  2.8239  2.4629  1.9152  1.9152  0.6863  1.1354  1.0424  0.8468  0.8468

 Free energy of the ion-electron system (eV)
  ---------------------------------------------------
  alpha Z        PSCENC =        60.70878244
  Ewald energy   TEWEN  =     -1893.97467813
  -1/2 Hartree   DENC   =     -1042.94367128
  -exchange  EXHF       =         0.00000000
  -V(xc)+E(xc)   XCENC  =        36.69045172
  PAW double counting   =      3007.21509891    -3159.60649505
  entropy T*S    EENTRO =         0.00620955
  eigenvalues    EBANDS =        87.92233573
  atomic energy  EATOM  =      2888.94626590
  ---------------------------------------------------
  free energy    TOTEN  =       -15.03570021 eV

  energy without entropy =      -15.04190975  energy(sigma->0) =      -15.03777005


--------------------------------------------------------------------------------------------------------




----------------------------------------- Iteration    1(  15)  ---------------------------------------


    POTLOK:  cpu time    0.00: real time    0.01
    SETDIJ:  cpu time    0.01: real time    0.00
    EDDIAG:  cpu time    0.08: real time    0.08
  RMM-DIIS:  cpu time    0.21: real time    0.21
    ORTHCH:  cpu time    0.01: real time    0.02
       DOS:  cpu time    0.00: real time    0.00
    CHARGE:  cpu time    0.03: real time    0.03
    MIXING:  cpu time    0.00: real time    0.00
    --------------------------------------------
      LOOP:  cpu time    0.34: real time    0.34

 eigenvalue-minimisations  :  2459
 total energy-change (2. order) : 0.3653930E-05  (-0.1639326E-05)
 number of electron      27.9999834 magnetization 
 augmentation part       13.8160499 magnetization 

 Broyden mixing:
  rms(total) = 0.59364E-03    rms(broyden)= 0.35631E-03
  rms(prec ) = 0.37744E-03
  weight for this iteration     100.00
  WARNING: grid for Broyden might be to small

 eigenvalues of (default mixing * dielectric matrix)
  average eigenvalue GAMMA=   1.4807
  2.7002  2.7002  2.3683  1.3253  1.3253  0.6866  0.8657  0.8657  1.0231  0.9468

 Free energy of the ion-electron system (eV)
  ---------------------------------------------------
  alpha Z        PSCENC =        60.70878244
  Ewald energy   TEWEN  =     -1893.97467813
  -1/2 Hartree   DENC   =     -1042.90812147
  -exchange  EXHF       =         0.00000000
  -V(xc)+E(xc)   XCENC  =        36.68790227
  PAW double counting   =      3006.66020967    -3159.03914432
  entropy T*S    EENTRO =         0.00621131
  eigenvalues    EBANDS =        87.87687578
  atomic energy  EATOM  =      2888.94626590
  ---------------------------------------------------
  free energy    TOTEN  =       -15.03569655 eV

  energy without entropy =      -15.04190786  energy(sigma->0) =      -15.03776699


--------------------------------------------------------------------------------------------------------




----------------------------------------- Iteration    1(  16)  ---------------------------------------


    POTLOK:  cpu time    0.00: real time    0.01
    SETDIJ:  cpu time    0.01: real time    0.00
    EDDIAG:  cpu time    0.07: real time    0.08
  RMM-DIIS:  cpu time    0.15: real time    0.14
    ORTHCH:  cpu time    0.01: real time    0.02
       DOS:  cpu time    0.00: real time    0.00
    --------------------------------------------
      LOOP:  cpu time    0.24: real time    0.25

 eigenvalue-minimisations  :  1537
 total energy-change (2. order) :-0.1777930E-06  (-0.8789533E-07)
 number of electron      27.9999834 magnetization 
 augmentation part       13.8160499 magnetization 

 Free energy of the ion-electron system (eV)
  ---------------------------------------------------
  alpha Z        PSCENC =        60.70878244
  Ewald energy   TEWEN  =     -1893.97467813
  -1/2 Hartree   DENC   =     -1042.90519413
  -exchange  EXHF       =         0.00000000
  -V(xc)+E(xc)   XCENC  =        36.68780143
  PAW double counting   =      3006.94728390    -3159.32747032
  entropy T*S    EENTRO =         0.00621132
  eigenvalues    EBANDS =        87.87530086
  atomic energy  EATOM  =      2888.94626590
  ---------------------------------------------------
  free energy    TOTEN  =       -15.03569673 eV

  energy without entropy =      -15.04190805  energy(sigma->0) =      -15.03776717


--------------------------------------------------------------------------------------------------------




 average (electrostatic) potential at core
  the test charge radii are     0.9430  1.0406
  (the norm of the test charge is              1.0000)
       1 -65.1085       2 -65.1085       3 -73.3439       4 -73.3439
 
 
 
 E-fermi :   6.9390     XC(G=0): -10.8750     alpha+bet :-13.4009


 k-point   1 :       0.0000    0.0000    0.0000
  band No.  band energies     occupation 
      1      -2.8979      2.00000
      2       1.8222      2.00000
      3       2.5618      2.00000
      4       2.6229      2.00000
      5       2.6649      2.00000
      6       2.6650      2.00000
      7       3.0848      2.00000
      8       3.0849      2.00000
      9       3.2869      2.00000
     10       3.2871      2.00000
     11       3.9296      2.00000
     12       3.9296      2.00000
     13       5.6631      2.00000
     14      10.1787      0.00000
     15      10.1788      0.00000
     16      12.2699      0.00000
     17      12.2699      0.00000
     18      13.5558      0.00000
     19      14.8611      0.00000
     20      14.6582      0.00000

 k-point   2 :       0.0909    0.0000    0.0000
  band No.  band energies     occupation 
      1      -2.7760      2.00000
      2       1.9275      2.00000
      3       2.3305      2.00000
      4       2.5603      2.00000
      5       2.6712      2.00000
      6       2.9342      2.00000
      7       3.0997      2.00000
      8       3.1771      2.00000
      9       3.2756      2.00000
     10       3.3102      2.00000
     11       3.9240      2.00000
     12       3.9285      2.00000
     13       5.6666      2.00000
     14       9.1489      0.00000
     15       9.6668      0.00000
     16      11.8127      0.00000
     17      12.8633      0.00000
     18      14.4454      0.00000
     19      14.5582      0.00000
     20      14.4805      0.00000

 k-point   3 :       0.1818    0.0000    0.0000
  band No.  band energies     occupation 
      1      -2.4129      2.00000
      2       2.0939      2.00000
      3       2.2222      2.00000
      4       2.5516      2.00000
      5       2.6812      2.00000
      6       2.8906      2.00000
      7       3.1555      2.00000
      8       3.2492      2.00000
      9       3.3679      2.00000
     10       3.6594      2.00000
     11       3.9114      2.00000
     12       3.9265      2.00000
     13       5.6772      2.00000
     14       7.3486     -0.01364
     15       8.8142      0.00000
     16      11.2296      0.00000
     17      12.6821      0.00000
     18      13.4980      0.00000
     19      13.7509      0.00000
     20      14.4398      0.00000

 k-point   4 :       0.2727    0.0000    0.0000
  band No.  band energies     occupation 
      1      -1.8177      2.00000
      2       1.9158      2.00000
      3       2.5037      2.00000
      4       2.6291      2.00000
      5       2.6792      2.00000
      6       2.7492      2.00000
      7       3.2556      2.00000
      8       3.2715      2.00000
      9       3.4444      2.00000
     10       3.8916      2.00000
     11       3.9228      2.00000
     12       4.2823      2.00000
     13       5.6507      2.00000
     14       5.7117      2.00000
     15       8.0421      0.00000
     16      10.6079      0.00000
     17      10.8415      0.00000
     18      12.1003      0.00000
     19      13.6159      0.00000
     20      14.0272      0.00000

 k-point   5 :       0.3636    0.0000    0.0000
  band No.  band energies     occupation 
      1      -1.0126      2.00000
      2       1.7242      2.00000
      3       2.2578      2.00000
      4       2.6303      2.00000
      5       2.6666      2.00000
      6       2.8798      2.00000
      7       3.3774      2.00000
      8       3.5173      2.00000
      9       3.5347      2.00000
     10       3.8776      2.00000
     11       3.9225      2.00000
     12       4.2909      2.00000
     13       5.0560      2.00000
     14       5.8036      2.00000
     15       7.4613     -0.00139
     16       9.2641      0.00000
     17       9.7773      0.00000
     18      11.2715      0.00000
     19      13.0057      0.00000
     20      13.9700      0.00000

 k-point   6 :       0.4545    0.0000    0.0000
  band No.  band energies     occupation 
      1      -0.0816      2.00000
      2       1.1598      2.00000
      3       1.9714      2.00000
      4       2.5954      2.00000
      5       2.6567      2.00000
      6       2.9201      2.00000
      7       3.4643      2.00000
      8       3.5611      2.00000
      9       3.7472      2.00000
     10       3.8333      2.00000
     11       3.9225      2.00000
     12       3.9305      2.00000
     13       5.5889      2.00000
     14       5.9712      2.00000
     15       7.1437     -0.05481
     16       8.2005      0.00000
     17       9.0226      0.00000
     18      10.9782      0.00000
     19      12.6885      0.00000
     20      13.9142      0.00000

 k-point   7 :       0.0909    0.0909    0.0000
  band No.  band energies     occupation 
      1      -2.5335      2.00000
      2       2.1270      2.00000
      3       2.1518      2.00000
      4       2.5553      2.00000
      5       2.6770      2.00000
      6       2.9180      2.00000
      7       3.1348      2.00000
      8       3.2530      2.00000
      9       3.3527      2.00000
     10       3.5124      2.00000
     11       3.9162      2.00000
     12       3.9269      2.00000
     13       5.6732      2.00000
     14       8.0609      0.00000
     15       8.6125      0.00000
     16      12.0271      0.00000
     17      12.9705      0.00000
     18      13.5084      0.00000
     19      13.9854      0.00000
     20      14.4086      0.00000

 k-point   8 :       0.1818    0.0909    0.0000
  band No.  band energies     occupation 
      1      -2.0540      2.00000
      2       1.9802      2.00000
      3       2.4905      2.00000
      4       2.5315      2.00000
      5       2.6723      2.00000
      6       2.8101      2.00000
      7       3.2140      2.00000
      8       3.2256      2.00000
      9       3.4325      2.00000
     10       3.8989      2.00000
     11       3.9231      2.00000
     12       4.0652      2.00000
     13       5.7000      2.00000
     14       6.4472      2.00278
     15       7.6670      0.00000
     16      11.6415      0.00000
     17      11.7854      0.00000
     18      12.9832      0.00000
     19      12.9874      0.00000
     20      13.2406      0.00000

 k-point   9 :       0.2727    0.0909    0.0000
  band No.  band energies     occupation 
      1      -1.3515      2.00000
      2       1.8303      2.00000
      3       2.4213      2.00000
      4       2.6523      2.00000
      5       2.6687      2.00000
      6       2.8559      2.00000
      7       3.2937      2.00000
      8       3.3331      2.00000
      9       3.5464      2.00000
     10       3.8830      2.00000
     11       3.9213      2.00000
     12       4.6447      2.00000
     13       5.0189      2.00000
     14       5.7794      2.00000
     15       7.0021      0.49406
     16      10.0659      0.00000
     17      10.6319      0.00000
     18      12.1657      0.00000
     19      12.3331      0.00000
     20      12.9861      0.00000

 k-point  10 :       0.3636    0.0909    0.0000
  band No.  band energies     occupation 
      1      -0.4649      2.00000
      2       1.5440      2.00000
      3       2.0860      2.00000
      4       2.5927      2.00000
      5       2.6344      2.00000
      6       2.9562      2.00000
      7       3.4500      2.00000
      8       3.4792      2.00000
      9       3.7682      2.00000
     10       3.8810      2.00000
     11       3.9218      2.00000
     12       3.9324      2.00000
     13       5.4414      2.00000
     14       5.9669      2.00000
     15       6.5631      2.02315
     16       8.6828      0.00000
     17       9.5778      0.00000
     18      11.8006      0.00000
     19      11.9272      0.00000
     20      12.7691      0.00000

 k-point  11 :       0.4545    0.0909    0.0000
  band No.  band energies     occupation 
      1       0.2960      2.00000
      2       0.9430      2.00000
      3       1.9524      2.00000
      4       2.5772      2.00000
      5       2.6255      2.00000
      6       2.9620      2.00000
      7       3.5039      2.00000
      8       3.5284      2.00000
      9       3.6658      2.00000
     10       3.8472      2.00000
     11       3.9167      2.00000
     12       3.9741      2.00000
     13       5.7800      2.00000
     14       6.1479      2.00000
     15       6.3954      2.00083
     16       8.0507      0.00000
     17       9.0990      0.00000
     18      11.6948      0.00000
     19      11.7883      0.00000
     20      12.6906      0.00000

 k-point  12 :       0.1818    0.1818    0.0000
  band No.  band energies     occupation 
      1      -1.4659      2.00000
      2       1.8689      2.00000
      3       2.4730      2.00000
      4       2.6394      2.00000
      5       2.6912      2.00000
      6       2.8624      2.00000
      7       3.1898      2.00000
      8       3.3171      2.00000
      9       3.5547      2.00000
     10       3.8865      2.00000
     11       3.9190      2.00000
     12       4.6438      2.00000
     13       5.4431      2.00000
     14       5.7826      2.00000
     15       6.3725      2.00046
     16      10.8791      0.00000
     17      11.3838      0.00000
     18      11.5058      0.00000
     19      12.0179      0.00000
     20      13.6852      0.00000

 k-point  13 :       0.2727    0.1818    0.0000
  band No.  band energies     occupation 
      1      -0.6717      2.00000
      2       1.7455      2.00000
      3       2.2792      2.00000
      4       2.5702      2.00000
      5       2.5962      2.00000
      6       3.0794      2.00000
      7       3.2755      2.00000
      8       3.4507      2.00000
      9       3.7342      2.00000
     10       3.8768      2.00000
     11       3.9195      2.00000
     12       4.3069      2.00000
     13       5.2688      2.00000
     14       5.7273      2.00000
     15       6.0086      2.00000
     16       9.4466      0.00000
     17      10.3589      0.00000
     18      10.7310      0.00000
     19      11.5687      0.00000
     20      13.5674      0.00000

 k-point  14 :       0.3636    0.1818    0.0000
  band No.  band energies     occupation 
      1       0.2504      2.00000
      2       1.3353      2.00000
      3       1.9764      2.00000
      4       2.5240      2.00000
      5       2.5579      2.00000
      6       3.0744      2.00000
      7       3.4187      2.00000
      8       3.5596      2.00000
      9       3.6867      2.00000
     10       3.8538      2.00000
     11       3.8983      2.00000
     12       3.9468      2.00000
     13       5.2719      2.00000
     14       5.9510      2.00000
     15       6.4128      2.00126
     16       8.2884      0.00000
     17       9.4810      0.00000
     18      10.4681      0.00000
     19      11.3877      0.00000
     20      13.3909      0.00000

 k-point  15 :       0.2727    0.2727    0.0000
  band No.  band energies     occupation 
      1       0.1806      2.00000
      2       1.6489      2.00000
      3       1.9913      2.00000
      4       2.4630      2.00000
      5       2.5228      2.00000
      6       3.1977      2.00000
      7       3.2920      2.00000
      8       3.5628      2.00000
      9       3.8369      2.00000
     10       3.8659      2.00000
     11       3.8751      2.00000
     12       3.9358      2.00000
     13       4.6611      2.00000
     14       6.0152      2.00000
     15       6.5261      2.01290
     16       8.7094      0.00000
     17       9.6543      0.00000
     18       9.9632      0.00000
     19      10.5794      0.00000
     20      12.9807      0.00000

 k-point  16 :       0.3636    0.2727    0.0000
  band No.  band energies     occupation 
      1       0.9631      2.00000
      2       1.2751      2.00000
      3       1.7415      2.00000
      4       2.4418      2.00000
      5       2.4733      2.00000
      6       3.2055      2.00000
      7       3.3345      2.00000
      8       3.4838      2.00000
      9       3.8054      2.00000
     10       3.8745      2.00000
     11       3.8928      2.00000
     12       3.9566      2.00000
     13       4.3500      2.00000
     14       6.3133      2.00009
     15       7.0939      0.03348
     16       7.9558      0.00000
     17       9.4013      0.00000
     18       9.6455      0.00000
     19      10.3254      0.00000
     20      12.6854      0.00000

 k-point  17 :       0.0000    0.0000    0.1429
  band No.  band energies     occupation 
      1      -2.7798      2.00000
      2       1.0172      2.00000
      3       2.6142      2.00000
      4       2.7014      2.00000
      5       2.7015      2.00000
      6       3.0909      2.00000
      7       3.1105      2.00000
      8       3.1106      2.00000
      9       3.2630      2.00000
     10       3.2632      2.00000
     11       3.8655      2.00000
     12       3.8655      2.00000
     13       6.1348      2.00000
     14      10.3495      0.00000
     15      10.3496      0.00000
     16      12.3169      0.00000
     17      12.3169      0.00000
     18      13.6618      0.00000
     19      14.5282      0.00000
     20      13.8242      0.00000

 k-point  18 :       0.0909    0.0000    0.1429
  band No.  band energies     occupation 
      1      -2.6583      2.00000
      2       1.1064      2.00000
      3       2.6060      2.00000
      4       2.6134      2.00000
      5       2.7087      2.00000
      6       3.0403      2.00000
      7       3.1236      2.00000
      8       3.2511      2.00000
      9       3.2872      2.00000
     10       3.3041      2.00000
     11       3.8584      2.00000
     12       3.8637      2.00000
     13       6.1714      2.00000
     14       9.3015      0.00000
     15       9.8275      0.00000
     16      11.8548      0.00000
     17      12.8505      0.00000
     18      13.6200      0.00000
     19      14.4845      0.00000
     20      14.5769      0.00000

 k-point  19 :       0.1818    0.0000    0.1429
  band No.  band energies     occupation 
      1      -2.2962      2.00000
      2       1.3418      2.00000
      3       2.5094      2.00000
      4       2.6068      2.00000
      5       2.7196      2.00000
      6       2.9499      2.00000
      7       3.1725      2.00000
      8       3.2268      2.00000
      9       3.3480      2.00000
     10       3.6351      2.00000
     11       3.8406      2.00000
     12       3.8597      2.00000
     13       6.2841      2.00004
[...]
     20      13.2311      0.00000

 k-point  52 :       0.2727    0.0000    0.4286
  band No.  band energies     occupation 
      1      -0.8458      2.00000
      2      -0.0906      2.00000
      3       2.6116      2.00000
      4       2.7230      2.00000
      5       2.9293      2.00000
      6       2.9503      2.00000
      7       3.1136      2.00000
      8       3.2338      2.00000
      9       3.2653      2.00000
     10       3.3475      2.00000
     11       3.3943      2.00000
     12       3.4590      2.00000
     13       6.5237      2.05978
     14       7.2069     -0.01771
     15       9.1585      0.00000
     16      10.0588      0.00000
     17      10.2997      0.00000
     18      11.3950      0.00000
     19      12.3079      0.00000
     20      13.2821      0.00000

 k-point  53 :       0.3636    0.0000    0.4286
  band No.  band energies     occupation 
      1      -0.1006      2.00000
      2       0.5784      2.00000
      3       2.3712      2.00000
      4       2.4719      2.00000
      5       2.9347      2.00000
      6       2.9382      2.00000
      7       3.1503      2.00000
      8       3.2517      2.00000
      9       3.3918      2.00000
     10       3.4162      2.00000
     11       3.4518      2.00000
     12       3.4943      2.00000
     13       5.0971      2.00000
     14       5.6868      2.00000
     15       8.6379      0.00000
     16       9.5582      0.00000
     17      10.6785      0.00000
     18      11.2773      0.00000
     19      12.3251      0.00000
     20      13.8099      0.00000

 k-point  54 :       0.4545    0.0000    0.4286
  band No.  band energies     occupation 
      1       0.7337      2.00000
      2       1.1720      2.00000
      3       1.9174      2.00000
      4       2.1710      2.00000
      5       2.9105      2.00000
      6       2.9338      2.00000
      7       3.1676      2.00000
      8       3.2613      2.00000
      9       3.4638      2.00000
     10       3.5255      2.00000
     11       3.6173      2.00000
     12       3.6721      2.00000
     13       4.1813      2.00000
     14       4.5532      2.00000
     15       8.3632      0.00000
     16       9.2957      0.00000
     17      10.8054      0.00000
     18      11.2809      0.00000
     19      12.8311      0.00000
     20      13.7732      0.00000

 k-point  55 :       0.0909    0.0909    0.4286
  band No.  band energies     occupation 
      1      -1.5198      2.00000
      2      -0.7263      2.00000
      3       2.7827      2.00000
      4       2.8851      2.00000
      5       2.9289      2.00000
      6       2.9508      2.00000
      7       3.0393      2.00000
      8       3.1874      2.00000
      9       3.2409      2.00000
     10       3.2709      2.00000
     11       3.4084      2.00000
     12       3.4368      2.00000
     13       9.0388      0.00000
     14       9.2777      0.00000
     15       9.5069      0.00000
     16      10.2604      0.00000
     17      10.4438      0.00000
     18      11.8336      0.00000
     19      13.2283      0.00000
     20      13.8921      0.00000

 k-point  56 :       0.1818    0.0909    0.4286
  band No.  band energies     occupation 
      1      -1.0673      2.00000
      2      -0.2974      2.00000
      3       2.6810      2.00000
      4       2.7982      2.00000
      5       2.9366      2.00000
      6       2.9514      2.00000
      7       3.0477      2.00000
      8       3.2460      2.00000
      9       3.2489      2.00000
     10       3.3078      2.00000
     11       3.4018      2.00000
     12       3.4512      2.00000
     13       7.3826     -0.00043
     14       8.0668      0.00000
     15       8.5980      0.00000
     16       9.3646      0.00000
     17      10.4650      0.00000
     18      12.1266      0.00000
     19      13.0892      0.00000
     20      13.8392      0.00000

 k-point  57 :       0.2727    0.0909    0.4286
  band No.  band energies     occupation 
      1      -0.4122      2.00000
      2       0.3056      2.00000
      3       2.5218      2.00000
      4       2.6089      2.00000
      5       2.9257      2.00000
      6       2.9536      2.00000
      7       3.0893      2.00000
      8       3.2551      2.00000
      9       3.3248      2.00000
     10       3.3506      2.00000
     11       3.4469      2.00000
     12       3.4929      2.00000
     13       5.8011      2.00000
     14       6.4639      2.03309
     15       8.0183      0.00000
     16       8.8178      0.00000
     17      10.9448      0.00000
     18      12.1935      0.00000
     19      12.9713      0.00000
     20      13.7905      0.00000

 k-point  58 :       0.3636    0.0909    0.4286
  band No.  band energies     occupation 
      1       0.3928      2.00000
      2       0.9767      2.00000
      3       2.1899      2.00000
      4       2.3531      2.00000
      5       2.9034      2.00000
      6       2.9386      2.00000
      7       3.1380      2.00000
      8       3.2605      2.00000
      9       3.4126      2.00000
     10       3.4441      2.00000
     11       3.5467      2.00000
     12       3.5887      2.00000
     13       4.6050      2.00000
     14       5.1178      2.00000
     15       7.6506      0.00000
     16       8.4735      0.00000
     17      11.5010      0.00000
     18      12.1329      0.00000
     19      12.9870      0.00000
     20      14.2408      0.00000

 k-point  59 :       0.4545    0.0909    0.4286
  band No.  band energies     occupation 
      1       1.0793      2.00000
      2       1.2271      2.00000
      3       1.8640      2.00000
      4       2.1313      2.00000
      5       2.8872      2.00000
      6       2.9326      2.00000
      7       3.1579      2.00000
      8       3.2626      2.00000
      9       3.4526      2.00000
     10       3.5005      2.00000
     11       3.6928      2.00000
     12       3.7866      2.00000
     13       4.0754      2.00000
     14       4.3970      2.00000
     15       7.5237     -0.00001
     16       8.3552      0.00000
     17      11.7035      0.00000
     18      12.1832      0.00000
     19      13.4581      0.00000
     20      13.4853      0.00000

 k-point  60 :       0.1818    0.1818    0.4286
  band No.  band energies     occupation 
      1      -0.5181      2.00000
      2       0.2105      2.00000
      3       2.5845      2.00000
      4       2.6747      2.00000
      5       2.9276      2.00000
      6       2.9904      2.00000
      7       2.9930      2.00000
      8       3.2655      2.00000
      9       3.3124      2.00000
     10       3.3152      2.00000
     11       3.4514      2.00000
     12       3.4954      2.00000
     13       6.4404      2.02414
     14       7.0768     -0.06859
     15       7.3184     -0.00207
     16       7.9813      0.00000
     17      10.9815      0.00000
     18      12.8181      0.00000
     19      14.2332      0.00000
     20      14.7777      0.00000

 k-point  61 :       0.2727    0.1818    0.4286
  band No.  band energies     occupation 
      1       0.2069      2.00000
      2       0.8381      2.00000
      3       2.4299      2.00000
      4       2.4965      2.00000
      5       2.8689      2.00000
      6       2.9633      2.00000
      7       3.0518      2.00000
      8       3.2652      2.00000
      9       3.3406      2.00000
     10       3.3708      2.00000
     11       3.5383      2.00000
     12       3.5864      2.00000
     13       5.2319      2.00000
     14       5.8683      2.00000
     15       6.5977      2.06292
     16       7.3159     -0.00219
     17      11.6943      0.00000
     18      13.3502      0.00000
     19      14.2882      0.00000
     20      14.9869      0.00000

 k-point  62 :       0.3636    0.1818    0.4286
  band No.  band energies     occupation 
      1       0.9992      2.00000
      2       1.3499      2.00000
      3       2.0889      2.00000
      4       2.3183      2.00000
      5       2.8095      2.00000
      6       2.9514      2.00000
      7       3.1208      2.00000
      8       3.2554      2.00000
      9       3.4071      2.00000
     10       3.4351      2.00000
     11       3.6287      2.00000
     12       3.7289      2.00000
     13       4.3762      2.00000
     14       4.8323      2.00000
     15       6.3162      2.00247
     16       7.0509     -0.07048
     17      12.5460      0.00000
     18      13.3073      0.00000
     19      14.3118      0.00000
     20      14.6394      0.00000

 k-point  63 :       0.2727    0.2727    0.4286
  band No.  band energies     occupation 
      1       0.9366      2.00000
      2       1.3559      2.00000
      3       2.3548      2.00000
      4       2.3899      2.00000
      5       2.7146      2.00000
      6       3.0106      2.00000
      7       3.0545      2.00000
      8       3.2491      2.00000
      9       3.3684      2.00000
     10       3.4035      2.00000
     11       3.6008      2.00000
     12       3.6977      2.00000
     13       4.7654      2.00000
     14       5.3021      2.00000
     15       5.6503      2.00000
     16       6.2263      2.00027
     17      12.5575      0.00000
     18      14.0498      0.00000
     19      14.9037      0.00000
     20      15.4420      0.00000

 k-point  64 :       0.3636    0.2727    0.4286
  band No.  band energies     occupation 
      1       1.4901      2.00000
      2       1.4982      2.00000
      3       2.1946      2.00000
      4       2.4039      2.00000
      5       2.5806      2.00000
      6       3.0340      2.00000
      7       3.1153      2.00000
      8       3.2149      2.00000
      9       3.4191      2.00000
     10       3.4259      2.00000
     11       3.5901      2.00000
     12       3.7626      2.00000
     13       4.5309      2.00000
     14       4.9470      2.00000
     15       5.3399      2.00000
     16       5.8935      2.00000
     17      13.4850      0.00000
     18      13.5949      0.00000
     19      14.6328      0.00000
     20      15.7364      0.00000


--------------------------------------------------------------------------------------------------------


 soft charge-density along one line, spin component           1
         0         1         2         3         4         5         6         7         8         9
 total charge-density along one line
 
 pseudopotential strength for first ion, spin component:           1
 -4.033   0.000   0.000   0.019   0.000  -3.847   0.000   0.000
  0.000  -4.001   0.000   0.000   0.019   0.000  -3.869   0.000
  0.000   0.000  -3.981   0.000   0.000   0.000   0.000  -3.883
  0.019   0.000   0.000  -4.001   0.000  -0.014   0.000   0.000
  0.000   0.019   0.000   0.000  -4.033   0.000  -0.014   0.000
 -3.847   0.000   0.000  -0.014   0.000   9.656   0.000   0.000
  0.000  -3.869   0.000   0.000  -0.014   0.000   9.672   0.000
  0.000   0.000  -3.883   0.000   0.000   0.000   0.000   9.680
 -0.014   0.000   0.000  -3.869   0.000   0.009   0.000   0.000
  0.000  -0.014   0.000   0.000  -3.847   0.000   0.009   0.000
  0.000   0.000  -0.001   0.000   0.000   0.000   0.000   0.002
  0.000   0.000  -0.001   0.000   0.000   0.000   0.000   0.003
  0.000   0.000   0.000   0.000   0.000   0.000   0.000   0.000
  0.000   0.000   0.000   0.000   0.000   0.000   0.000   0.000
  0.000   0.000   0.000   0.000   0.000   0.000   0.000   0.000
  0.000   0.000   0.000   0.000   0.000   0.000   0.000   0.000
  0.000   0.000   0.000   0.000   0.000   0.000   0.000   0.000
  0.000   0.000   0.000   0.000   0.000   0.000   0.000   0.000
 total augmentation occupancy for first ion, spin component:           1
  1.919   0.000   0.000   0.011   0.000  -0.017   0.000   0.000  -0.022   0.000   0.000   0.000   0.000   0.000   0.000   0.000
  0.000   1.916   0.000   0.000   0.011   0.000  -0.012   0.000   0.000  -0.022   0.000   0.000   0.000   0.000   0.000   0.000
  0.000   0.000   1.910   0.000   0.000   0.000   0.000  -0.021   0.000   0.000  -0.024  -0.017   0.000   0.000   0.000   0.000
  0.011   0.000   0.000   1.916   0.000  -0.022   0.000   0.000  -0.012   0.000   0.000   0.000   0.000   0.000   0.000   0.000
  0.000   0.011   0.000   0.000   1.919   0.000  -0.022   0.000   0.000  -0.017   0.000   0.000   0.000   0.000   0.000   0.000
 -0.017   0.000   0.000  -0.022   0.000   0.009   0.000   0.000  -0.002   0.000   0.000   0.000   0.000   0.000   0.000   0.000
  0.000  -0.012   0.000   0.000  -0.022   0.000   0.012   0.000   0.000  -0.002   0.000   0.000   0.000   0.000   0.000   0.000
  0.000   0.000  -0.021   0.000   0.000   0.000   0.000   0.017   0.000   0.000   0.030  -0.002   0.000   0.000   0.000   0.000
 -0.022   0.000   0.000  -0.012   0.000  -0.002   0.000   0.000   0.012   0.000   0.000   0.000   0.000   0.000   0.000   0.000
  0.000  -0.022   0.000   0.000  -0.017   0.000  -0.002   0.000   0.000   0.009   0.000   0.000   0.000   0.000   0.000   0.000
  0.000   0.000  -0.024   0.000   0.000   0.000   0.000   0.030   0.000   0.000   1.913  -0.142   0.000   0.000   0.000   0.000
  0.000   0.000  -0.017   0.000   0.000   0.000   0.000  -0.002   0.000   0.000  -0.142   0.020   0.000   0.000   0.000   0.000
  0.000   0.000   0.000   0.000   0.000   0.000   0.000   0.000   0.000   0.000   0.000   0.000   0.243   0.000   0.000  -0.012
  0.000   0.000   0.000   0.000   0.000   0.000   0.000   0.000   0.000   0.000   0.000   0.000   0.000   0.338   0.000   0.000
  0.000   0.000   0.000   0.000   0.000   0.000   0.000   0.000   0.000   0.000   0.000   0.000   0.000   0.000   0.243   0.000
  0.000   0.000   0.000   0.000   0.000   0.000   0.000   0.000   0.000   0.000   0.000   0.000  -0.012   0.000   0.000   0.001
  0.000   0.000   0.000   0.000   0.000   0.000   0.000   0.000   0.000   0.000   0.000   0.000   0.000  -0.018   0.000   0.000
  0.000   0.000   0.000   0.000   0.000   0.000   0.000   0.000   0.000   0.000   0.000   0.000   0.000   0.000  -0.012   0.000


------------------------ aborting loop because EDIFF is reached ----------------------------------------


    CHARGE:  cpu time    0.03: real time    0.03
    FORLOC:  cpu time    0.00: real time    0.00
    FORNL :  cpu time    0.14: real time    0.14
    STRESS:  cpu time    0.40: real time    0.40
    FORCOR:  cpu time    0.00: real time    0.01
    FORHAR:  cpu time    0.01: real time    0.00
    MIXING:  cpu time    0.00: real time    0.00

  FORCE on cell =-STRESS in cart. coord.  units (eV):
  Direction    XX          YY          ZZ          XY          YZ          ZX
  --------------------------------------------------------------------------------------
  Alpha Z    60.14326    60.14326    60.14326
  Ewald    -758.80741  -758.80742  -365.42375    -0.00001     0.00000     0.00000
  Hartree   248.08002   248.08001   555.28046     0.00000     0.00000     0.00000
  E(xc)    -145.54961  -145.54982  -145.33686    -0.00018    -0.00003    -0.00002
  Local     198.96479   198.96132  -503.09761    -0.00301    -0.00036    -0.00021
  n-local     1.15321    -1.25119     0.14284     3.16462    -0.60508    -0.06956
  augment   188.34052   188.34330   188.16541     0.00241     0.00029     0.00017
  Kinetic   213.30940   204.48844   210.13600    10.13233    -1.89392     0.48990
  Fock        0.00000     0.00000     0.00000     0.00000     0.00000     0.00000
  -------------------------------------------------------------------------------------
  Total       0.02104     0.02104     0.00975     0.00000     0.00000     0.00000
  in kB       0.55377     0.55377     0.25680     0.00000     0.00000     0.00000
  external pressure =        0.45 kB  Pullay stress =        0.00 kB


 VOLUME and BASIS-vectors are now :
 -----------------------------------------------------------------------------
  energy-cutoff  :      295.45
  volume of cell :       60.86
      direct lattice vectors                 reciprocal lattice vectors
     3.719498295  0.000000000  0.000000000     0.268853464  0.155222620  0.000000000
    -1.859749147  3.221180013  0.000000000     0.000000000  0.310445239  0.000000000
     0.000000000  0.000000000  5.079785383     0.000000000  0.000000000  0.196858710

  length of vectors
     3.719498295  3.719498295  5.079785383     0.310445239  0.310445239  0.196858710


 FORCES acting on ions
    electron-ion (+dipol)            ewald-force                    non-local-force                 convergence-correction
 -----------------------------------------------------------------------------------------------
   -.379E-13 -.985E-14 -.546E-13   0.346E-14 0.102E-14 -.284E-13   0.165E-23 -.192E-27 0.000E+00   -.550E-14 -.272E-13 -.815E-13
   -.391E-13 -.695E-14 0.961E-12   -.137E-14 -.133E-14 -.711E-14   -.166E-23 -.149E-26 0.000E+00   -.182E-13 -.436E-13 0.717E-13
   0.208E-04 -.120E-04 -.357E-13   0.159E-05 -.910E-06 0.205E-13   -.208E-16 0.278E-16 0.173E-17   0.404E-08 -.233E-08 -.123E-13
   -.208E-04 0.120E-04 -.511E-13   -.159E-05 0.910E-06 0.796E-14   0.278E-16 -.278E-16 -.173E-17   -.404E-08 0.233E-08 0.123E-13
 -----------------------------------------------------------------------------------------------
   -.247E-12 0.239E-12 0.820E-12   0.173E-14 -.245E-14 -.710E-14   0.694E-17 -.225E-26 0.000E+00   -.234E-13 -.691E-13 -.972E-14
 
 
 POSITION                                       TOTAL-FORCE (eV/Angst)
 -----------------------------------------------------------------------------------
      0.00000      0.00000      0.00000         0.000000      0.000000      0.000000
      0.00000      0.00000      2.53989         0.000000      0.000000      0.000000
      0.00000      2.14745      1.26995         0.000000      0.000000      0.000000
      1.85975      1.07373      3.80984         0.000000      0.000000      0.000000
 -----------------------------------------------------------------------------------
    total drift:                                0.000000      0.000000      0.000000


--------------------------------------------------------------------------------------------------------



  FREE ENERGIE OF THE ION-ELECTRON SYSTEM (eV)
  ---------------------------------------------------
  free  energy   TOTEN  =       -15.042853 eV

  energy  without entropy=      -15.045410  energy(sigma->0) =      -15.043705
 
 d Force = 0.0000000E+00[ 0.000E+00, 0.000E+00]  d Energy = 0.5376334E-05-0.538E-05
 d Force = 0.0000000E+00[ 0.000E+00, 0.000E+00]  d Ewald  =-0.2803286E+00 0.280E+00


--------------------------------------------------------------------------------------------------------


    POTLOK:  cpu time    0.01: real time    0.01


--------------------------------------------------------------------------------------------------------




--------------------------------------------------------------------------------------------------------


  
 reached required accuracy - stopping structural energy minimisation
     LOOP+:  cpu time    2.49: real time    2.51
    4ORBIT:  cpu time    0.00: real time    0.00

 total amount of memory used by VASP on root node    48458. kBytes
========================================================================

   base      :      30000. kBytes
   nonl-proj :      13095. kBytes
   fftplans  :        452. kBytes
   grid      :        958. kBytes
   one-center:         62. kBytes
   wavefun   :       3891. kBytes
 
  
  
 General timing and accounting informations for this job:
 ========================================================
  
                  Total CPU time used (sec):       25.570
                            User time (sec):       25.530
                          System time (sec):        0.040
                         Elapsed time (sec):       25.795
  
                   Maximum memory used (kb):       42760.
                   Average memory used (kb):           0.
  
                          Minor page faults:        11000
                          Major page faults:            0
                 Voluntary context switches:          958
