 vasp.5.2.12 11Nov11 complex                                                    
  
 executed on             LinuxIFC date 2014.05.30  10:52:47
 running on    4 nodes
 distr:  one band on    1 nodes,    4 groups


--------------------------------------------------------------------------------------------------------


 INCAR:
 POTCAR:    PAW_PBE Cu 22Jun2005                  
 POTCAR:    PAW_PBE Al 04Jan2001                  
 POTCAR:    PAW_PBE Cu 22Jun2005                  
   VRHFIN =Cu: d10 p1                                                           
   LEXCH  = PE                                                                  
   EATOM  =  1390.9808 eV,  102.2342 Ry                                         
                                                                                
   TITEL  = PAW_PBE Cu 22Jun2005                                                
   LULTRA =        F    use ultrasoft PP ?                                      
   IUNSCR =        1    unscreen: 0-lin 1-nonlin 2-no                           
   RPACOR =    2.000    partial core radius                                     
   POMASS =   63.546; ZVAL   =   11.000    mass and valenz                      
   RCORE  =    2.300    outmost cutoff radius                                   
   RWIGS  =    2.200; RWIGS  =    1.164    wigner-seitz radius (au A)           
   ENMAX  =  295.446; ENMIN  =  221.585 eV                                      
   ICORE  =        3    local potential                                         
   LCOR   =        T    correct aug charges                                     
   LPAW   =        T    paw PP                                                  
   EAUG   =  586.980                                                            
   DEXC   =    0.000                                                            
   RMAX   =    2.344    core radius for proj-oper                               
   RAUG   =    1.300    factor for augmentation sphere                          
   RDEP   =    2.302    radius for radial grids                                 
   RDEPT  =    1.771    core radius for aug-charge                              
                                                                                
   Atomic configuration                                                         
    9 entries                                                                   
     n  l   j            E        occ.                                          
     1  0  0.50     -8850.2468   2.0000                                         
     2  0  0.50     -1062.3498   2.0000                                         
     2  1  1.50      -916.8226   6.0000                                         
     3  0  0.50      -114.6929   2.0000                                         
     3  1  1.50       -72.1325   6.0000                                         
     3  2  2.50        -5.0394  10.0000                                         
     4  0  0.50        -4.6097   1.0000                                         
     4  1  0.50        -4.0817   0.0000                                         
     4  3  2.50        -1.3606   0.0000                                         
   Description                                                                  
     l       E           TYP  RCUT    TYP  RCUT                                 
     2     -5.0393973     23  2.200                                             
     2     10.8846608     23  2.200                                             
     0     -4.6097109     23  2.200                                             
     0      8.2520465     23  2.200                                             
     1     -2.7211652     23  2.200                                             
     1     21.7055443     23  2.200                                             
     3      2.7211652     23  2.300                                             
  local pseudopotential read in
  partial core-charges read in
  partial kinetic energy density read in
  atomic valenz-charges read in
  non local Contribution for L=           2  read in
    real space projection operators read in
  non local Contribution for L=           2  read in
    real space projection operators read in
  non local Contribution for L=           0  read in
    real space projection operators read in
  non local Contribution for L=           0  read in
    real space projection operators read in
  non local Contribution for L=           1  read in
    real space projection operators read in
  non local Contribution for L=           1  read in
    real space projection operators read in
    PAW grid and wavefunctions read in
 
   number of l-projection  operators is LMAX  =           6
   number of lm-projection operators is LMMAX =          18
 
 POTCAR:    PAW_PBE Al 04Jan2001                  
   VRHFIN =Al: s2p1                                                             
   LEXCH  = PE                                                                  
   EATOM  =    53.5387 eV,    3.9350 Ry                                         
                                                                                
   TITEL  = PAW_PBE Al 04Jan2001                                                
   LULTRA =        F    use ultrasoft PP ?                                      
   IUNSCR =        1    unscreen: 0-lin 1-nonlin 2-no                           
   RPACOR =    1.500    partial core radius                                     
   POMASS =   26.981; ZVAL   =    3.000    mass and valenz                      
   RCORE  =    1.900    outmost cutoff radius                                   
   RWIGS  =    2.650; RWIGS  =    1.402    wigner-seitz radius (au A)           
   ENMAX  =  240.300; ENMIN  =  180.225 eV                                      
   ICORE  =        2    local potential                                         
   LCOR   =        T    correct aug charges                                     
   LPAW   =        T    paw PP                                                  
   EAUG   =  291.052                                                            
   DEXC   =    0.000                                                            
   RMAX   =    1.939    core radius for proj-oper                               
   RAUG   =    1.300    factor for augmentation sphere                          
   RDEP   =    1.966    radius for radial grids                                 
   RDEPT  =    1.856    core radius for aug-charge                              
                                                                                
   Atomic configuration                                                         
    6 entries                                                                   
     n  l   j            E        occ.                                          
     1  0  0.50     -1511.1048   2.0000                                         
     2  0  0.50      -108.1629   2.0000                                         
     2  1  1.50       -69.6402   6.0000                                         
     3  0  0.50        -7.7528   2.0000                                         
     3  1  1.50        -2.7121   1.0000                                         
     3  2  2.50        -2.7212   0.0000                                         
   Description                                                                  
     l       E           TYP  RCUT    TYP  RCUT                                 
     0     -7.7528455     23  1.900                                             
     0     -3.3096929     23  1.900                                             
     1     -2.7120682     23  1.900                                             
     1     13.6058260     23  1.900                                             
     2     -2.7211652      7  1.900                                             
  local pseudopotential read in
  partial core-charges read in
  partial kinetic energy density read in
  atomic valenz-charges read in
  non local Contribution for L=           0  read in
    real space projection operators read in
  non local Contribution for L=           0  read in
    real space projection operators read in
  non local Contribution for L=           1  read in
    real space projection operators read in
  non local Contribution for L=           1  read in
    real space projection operators read in
    PAW grid and wavefunctions read in
 
   number of l-projection  operators is LMAX  =           4
   number of lm-projection operators is LMMAX =           8
 
  PAW_PBE Cu 22Jun2005                  :
 energy of atom  1       EATOM=-1390.9808
 kinetic energy error for atom=    0.0452 (will be added to EATOM!!)
  PAW_PBE Al 04Jan2001                  :
 energy of atom  2       EATOM=  -53.5387
 kinetic energy error for atom=    0.0012 (will be added to EATOM!!)
 
 
 POSCAR: XYZ: Cu6Al2                             
  positions in direct lattice
  velocities in cartesian coordinates
 exchange correlation table for  LEXCH =        8
   RHO(1)=    0.500       N(1)  =     2000
   RHO(2)=  100.500       N(2)  =     4000
 


--------------------------------------------------------------------------------------------------------


 ion  position               nearest neighbor table
   1  0.000  0.000  0.500-   3 2.60   4 2.60   5 2.60   6 2.60   3 2.60   5 2.60   4 2.60   6 2.60
                             8 2.60   8 2.60   8 2.60   8 2.60
   2  0.500  0.500  0.000-   3 2.60   4 2.60   5 2.60   6 2.60   4 2.60   6 2.60   3 2.60   5 2.60
                             7 2.60   7 2.60   7 2.60   7 2.60
   3  0.000  0.500  0.250-   1 2.60   2 2.60   7 2.60   8 2.60   1 2.60   7 2.60   2 2.60   8 2.60
                             4 2.60   4 2.60   4 2.60   4 2.60
   4  0.500  0.000  0.250-   1 2.60   2 2.60   7 2.60   8 2.60   2 2.60   8 2.60   1 2.60   7 2.60
                             3 2.60   3 2.60   3 2.60   3 2.60
   5  0.000  0.500  0.750-   1 2.60   2 2.60   7 2.60   8 2.60   1 2.60   7 2.60   2 2.60   8 2.60
                             6 2.60   6 2.60   6 2.60   6 2.60
   6  0.500  0.000  0.750-   1 2.60   2 2.60   7 2.60   8 2.60   2 2.60   8 2.60   1 2.60   7 2.60
                             5 2.60   5 2.60   5 2.60   5 2.60
   7  0.000  0.000  0.000-   3 2.60   4 2.60   5 2.60   6 2.60   3 2.60   5 2.60   4 2.60   6 2.60
                             2 2.60   2 2.60   2 2.60   2 2.60
   8  0.500  0.500  0.500-   3 2.60   4 2.60   5 2.60   6 2.60   4 2.60   6 2.60   3 2.60   5 2.60
                             1 2.60   1 2.60   1 2.60   1 2.60
 
  LATTYP: Found a simple tetragonal cell.
 ALAT       =     3.6831445672
 C/A-ratio  =     1.9999624790
  
  Lattice vectors:
  
 A1 = (   3.6831445672,   0.0000000000,   0.0000000000)
 A2 = (   0.0000000000,   3.6831445672,   0.0000000000)
 A3 = (   0.0000000000,   0.0000000000,   7.3661509391)
 Subroutine PRICEL returns following result:
 
  LATTYP: Found a body centered tetragonal cell.
 ALAT       =     3.6831445672
 C/A-ratio  =     1.9999624790
  
  Lattice vectors:
  
 A1 = (   1.8415722836,  -1.8415722836,   3.6830754695)
 A2 = (  -1.8415722836,   1.8415722836,   3.6830754695)
 A3 = (  -1.8415722836,  -1.8415722836,  -3.6830754695)
 
   2 primitive cells build up your supercell.
 

Analysis of symmetry for initial positions (statically):

 Routine SETGRP: Setting up the symmetry group for a 
 simple tetragonal supercell.


 Subroutine GETGRP returns: Found 16 space group operations
 (whereof 16 operations were pure point group operations)
 out of a pool of 16 trial point group operations.


The static configuration has the point symmetry D_4h.

Analysis of symmetry for dynamics (positions and initial velocities):

 Subroutine DYNSYM returns: Found 16 space group operations
 (whereof 16 operations were pure point group operations)
 out of a pool of 16 trial space group operations
 (whereof 16 operations were pure point group operations)
 and found also     2 'primitive' translations


The dynamic configuration has the point symmetry D_4h.
 
 
 KPOINTS: Automatic mesh                          

Automatic generation of k-mesh.
 
 Subroutine IBZKPT returns following result:
 ===========================================
 
 Found     45 irreducible k-points:
 
 Following reciprocal coordinates:
            Coordinates               Weight
  0.050000  0.050000  0.000000      4.000000
  0.150000  0.050000  0.000000      8.000000
  0.250000  0.050000  0.000000      8.000000
  0.350000  0.050000  0.000000      8.000000
  0.450000  0.050000  0.000000      8.000000
  0.150000  0.150000  0.000000      4.000000
  0.250000  0.150000  0.000000      8.000000
  0.350000  0.150000  0.000000      8.000000
  0.450000  0.150000  0.000000      8.000000
  0.250000  0.250000  0.000000      4.000000
  0.350000  0.250000  0.000000      8.000000
  0.450000  0.250000  0.000000      8.000000
  0.350000  0.350000  0.000000      4.000000
  0.450000  0.350000  0.000000      8.000000
  0.450000  0.450000  0.000000      4.000000
  0.050000  0.050000  0.200000      8.000000
  0.150000  0.050000  0.200000     16.000000
  0.250000  0.050000  0.200000     16.000000
  0.350000  0.050000  0.200000     16.000000
  0.450000  0.050000  0.200000     16.000000
  0.150000  0.150000  0.200000      8.000000
  0.250000  0.150000  0.200000     16.000000
  0.350000  0.150000  0.200000     16.000000
  0.450000  0.150000  0.200000     16.000000
  0.250000  0.250000  0.200000      8.000000
  0.350000  0.250000  0.200000     16.000000
  0.450000  0.250000  0.200000     16.000000
  0.350000  0.350000  0.200000      8.000000
  0.450000  0.350000  0.200000     16.000000
  0.450000  0.450000  0.200000      8.000000
  0.050000  0.050000  0.400000      8.000000
  0.150000  0.050000  0.400000     16.000000
  0.250000  0.050000  0.400000     16.000000
  0.350000  0.050000  0.400000     16.000000
  0.450000  0.050000  0.400000     16.000000
  0.150000  0.150000  0.400000      8.000000
  0.250000  0.150000  0.400000     16.000000
  0.350000  0.150000  0.400000     16.000000
  0.450000  0.150000  0.400000     16.000000
  0.250000  0.250000  0.400000      8.000000
  0.350000  0.250000  0.400000     16.000000
  0.450000  0.250000  0.400000     16.000000
  0.350000  0.350000  0.400000      8.000000
  0.450000  0.350000  0.400000     16.000000
  0.450000  0.450000  0.400000      8.000000
 
 Following cartesian coordinates:
            Coordinates               Weight
  0.013575  0.013575  0.000000      4.000000
  0.040726  0.013575  0.000000      8.000000
  0.067877  0.013575  0.000000      8.000000
  0.095027  0.013575  0.000000      8.000000
  0.122178  0.013575  0.000000      8.000000
  0.040726  0.040726  0.000000      4.000000
  0.067877  0.040726  0.000000      8.000000
  0.095027  0.040726  0.000000      8.000000
  0.122178  0.040726  0.000000      8.000000
  0.067877  0.067877  0.000000      4.000000
  0.095027  0.067877  0.000000      8.000000
  0.122178  0.067877  0.000000      8.000000
  0.095027  0.095027  0.000000      4.000000
  0.122178  0.095027  0.000000      8.000000
  0.122178  0.122178  0.000000      4.000000
  0.013575  0.013575  0.027151      8.000000
  0.040726  0.013575  0.027151     16.000000
  0.067877  0.013575  0.027151     16.000000
  0.095027  0.013575  0.027151     16.000000
  0.122178  0.013575  0.027151     16.000000
  0.040726  0.040726  0.027151      8.000000
  0.067877  0.040726  0.027151     16.000000
  0.095027  0.040726  0.027151     16.000000
  0.122178  0.040726  0.027151     16.000000
  0.067877  0.067877  0.027151      8.000000
  0.095027  0.067877  0.027151     16.000000
  0.122178  0.067877  0.027151     16.000000
  0.095027  0.095027  0.027151      8.000000
  0.122178  0.095027  0.027151     16.000000
  0.122178  0.122178  0.027151      8.000000
  0.013575  0.013575  0.054302      8.000000
  0.040726  0.013575  0.054302     16.000000
  0.067877  0.013575  0.054302     16.000000
  0.095027  0.013575  0.054302     16.000000
  0.122178  0.013575  0.054302     16.000000
  0.040726  0.040726  0.054302      8.000000
  0.067877  0.040726  0.054302     16.000000
  0.095027  0.040726  0.054302     16.000000
  0.122178  0.040726  0.054302     16.000000
  0.067877  0.067877  0.054302      8.000000
  0.095027  0.067877  0.054302     16.000000
  0.122178  0.067877  0.054302     16.000000
  0.095027  0.095027  0.054302      8.000000
  0.122178  0.095027  0.054302     16.000000
  0.122178  0.122178  0.054302      8.000000
 


--------------------------------------------------------------------------------------------------------




 Dimension of arrays:
   k-points           NKPTS =     45   k-points in BZ     NKDIM =     45   number of bands    NBANDS=     44
   number of dos      NEDOS =    301   number of ions     NIONS =      8
   non local maximal  LDIM  =      6   non local SUM 2l+1 LMDIM =     18
   total plane-waves  NPLWV =   8192
   max r-space proj   IRMAX =      1   max aug-charges    IRDMAX=   3390
   dimension x,y,z NGX =    16 NGY =   16 NGZ =   32
   dimension x,y,z NGXF=    32 NGYF=   32 NGZF=   64
   support grid    NGXF=    32 NGYF=   32 NGZF=   64
   ions per type =               6   2
 NGX,Y,Z   is equivalent  to a cutoff of   7.22,  7.22,  7.22 a.u.
 NGXF,Y,Z  is equivalent  to a cutoff of  14.44, 14.44, 14.44 a.u.


 I would recommend the setting:
   dimension x,y,z NGX =    15 NGY =   15 NGZ =   31
 SYSTEM =  Al2Cu6                                  
 POSCAR =  XYZ: Cu6Al2                             

 Startparameter for this run:
   NWRITE =      2    write-flag & timer
   PREC   = normal    normal or accurate (medium, high low for compatibility)
   ISTART =      0    job   : 0-new  1-cont  2-samecut
   ICHARG =      2    charge: 1-file 2-atom 10-const
   ISPIN  =      1    spin polarized calculation?
   LNONCOLLINEAR =      F non collinear calculations
   LSORBIT =      F    spin-orbit coupling
   INIWAV =      1    electr: 0-lowe 1-rand  2-diag
   LASPH  =      F    aspherical Exc in radial PAW
   METAGGA=      F    non-selfconsistent MetaGGA calc.

 Electronic Relaxation 1
   ENCUT  =  295.4 eV  21.71 Ry    4.66 a.u.   5.16  5.16 10.32*2*pi/ulx,y,z
   ENINI  =  295.4     initial cutoff
   ENAUG  =  587.0 eV  augmentation charge cutoff
   NELM   =     40;   NELMIN=  2; NELMDL=  0     # of ELM steps 
   EDIFF  = 0.1E-05   stopping-criterion for ELM
   LREAL  =      F    real-space projection
   NLSPLINE    = F    spline interpolate recip. space projectors
   LCOMPAT=      F    compatible to vasp.4.4
   GGA_COMPAT  = T    GGA compatible to vasp.4.4-vasp.4.6
   LMAXPAW     = -100 max onsite density
   LMAXMIX     =    2 max onsite mixed and CHGCAR
   VOSKOWN=      0    Vosko Wilk Nusair interpolation
   ROPT   =    0.00000   0.00000
 Ionic relaxation
   EDIFFG = 0.1E-04   stopping-criterion for IOM
   NSW    =     10    number of steps for IOM
   NBLOCK =      1;   KBLOCK =     10    inner block; outer block 
   IBRION =      2    ionic relax: 0-MD 1-quasi-New 2-CG
   NFREE  =      1    steps in history (QN), initial steepest desc. (CG)
   ISIF   =      3    stress and relaxation
   IWAVPR =     11    prediction:  0-non 1-charg 2-wave 3-comb
   ISYM   =      2    0-nonsym 1-usesym 2-fastsym
   LCORR  =      T    Harris-Foulkes like correction to forces

   POTIM  = 0.2500    time-step for ionic-motion
   TEIN   =    0.0    initial temperature
   TEBEG  =    0.0;   TEEND  =   0.0 temperature during run
   SMASS  =  -3.00    Nose mass-parameter (am)
   estimated Nose-frequenzy (Omega)   =  0.10E-29 period in steps =****** mass=  -0.310E-27a.u.
   SCALEE = 1.0000    scale energy and forces
   NPACO  =    256;   APACO  = 16.0  distance and # of slots for P.C.
   PSTRESS=    0.0 pullay stress

  Mass of Ions in am
   POMASS =  63.55 26.98
  Ionic Valenz
   ZVAL   =  11.00  3.00
  Atomic Wigner-Seitz radii
   RWIGS  =  -1.00 -1.00
  virtual crystal weights 
   VCA    =   1.00  1.00
   NELECT =      72.0000    total number of electrons
   NUPDOWN=      -1.0000    fix difference up-down

 DOS related values:
   EMIN   =  10.00;   EMAX   =-10.00  energy-range for DOS
   EFERMI =   0.00
   ISMEAR =     1;   SIGMA  =   0.20  broadening in eV -4-tet -1-fermi 0-gaus

 Electronic relaxation 2 (details)
   IALGO  =     68    algorithm
   LDIAG  =      T    sub-space diagonalisation (order eigenvalues)
   LSUBROT=      T    optimize rotation matrix (better conditioning)
   TURBO    =      0    0=normal 1=particle mesh
   IRESTART =      0    0=no restart 2=restart with 2 vectors
   NREBOOT  =      0    no. of reboots
   NMIN     =      0    reboot dimension
   EREF     =   0.00    reference energy to select bands
   IMIX   =      4    mixing-type and parameters
     AMIX     =   0.40;   BMIX     =  1.00
     AMIX_MAG =   1.60;   BMIX_MAG =  1.00
     AMIN     =   0.10
     WC   =   100.;   INIMIX=   1;  MIXPRE=   1

 Intra band minimization:
   WEIMIN = 0.0010     energy-eigenvalue tresh-hold
   EBREAK =  0.57E-08  absolut break condition
   DEPER  =   0.30     relativ break condition  

   TIME   =   0.40     timestep for ELM

  volume/ion in A,a.u.               =      12.49        84.29
  Fermi-wavevector in a.u.,A,eV,Ry     =   1.467663  2.773481 29.307412  2.154034
  Thomas-Fermi vector in A             =   2.583254
 
 Write flags
   LWAVE  =      F    write WAVECAR
   LCHARG =      F    write CHGCAR
   LVTOT  =      F    write LOCPOT, total local potential
   LVHAR  =      F    write LOCPOT, Hartree potential only
   LELF   =      F    write electronic localiz. function (ELF)
   LORBIT =      0    0 simple, 1 ext, 2 COOP (PROOUT)


 Dipole corrections
   LMONO  =      F    monopole corrections only (constant potential shift)
   LDIPOL =      F    correct potential (dipole corrections)
   IDIPOL =      0    1-x, 2-y, 3-z, 4-all directions 
   EPSILON=  1.0000000 bulk dielectric constant

 Exchange correlation treatment:
   GGA     =    --    GGA type
   LEXCH   =     8    internal setting for exchange type
   VOSKOWN=      0    Vosko Wilk Nusair interpolation
   LHFCALC =     F    Hartree Fock is set to
   LHFONE  =     F    Hartree Fock one center treatment
   AEXX    =    0.0000 exact exchange contribution

 Linear response parameters
   LEPSILON=     F    determine dielectric tensor
   LRPA    =     F    only Hartree local field effects (RPA)
   LNABLA  =     F    use nabla operator in PAW spheres
   LVEL    =     F    velocity operator in full k-point grid
   LINTERFAST=   F  fast interpolation
   KINTER  =     0    interpolate to denser k-point grid
   CSHIFT  =0.1000    complex shift for real part using Kramers Kronig
   OMEGAMAX=  -1.0    maximum frequency
   RTIME   =    0.100 relaxation time in fs

 Orbital magnetization related:
   ORBITALMAG=     F  switch on orbital magnetization
   LCHIMAG   =     F  perturbation theory with respect to B field
   DQ        =  0.001000  dq finite difference perturbation B field



--------------------------------------------------------------------------------------------------------


 conjugate gradient relaxation of ions
 charge density and potential will be updated during run
 non-spin polarized calculation
 RMM-DIIS sequential band-by-band and
  variant of blocked Davidson during initial phase
 perform sub-space diagonalisation
    before iterative eigenvector-optimisation
 modified Broyden-mixing scheme, WC =      100.0
 initial mixing is a Kerker type mixing with AMIX =  0.4000 and BMIX =      1.0000
 Hartree-type preconditioning will be used
 using additional bands            8
 reciprocal scheme for non local part
 use partial core corrections
 calculate Harris-corrections to forces 
   (improved forces if not selfconsistent)
 use gradient corrections 
 use of overlap-Matrix (Vanderbilt PP)
 Methfessel and Paxton  Order N= 1 SIGMA  =   0.20


--------------------------------------------------------------------------------------------------------


  energy-cutoff  :      295.45
  volume of cell :       99.93
      direct lattice vectors                 reciprocal lattice vectors
     3.683144567  0.000000000  0.000000000     0.271507127  0.000000000  0.000000000
     0.000000000  3.683144567  0.000000000     0.000000000  0.271507127  0.000000000
     0.000000000  0.000000000  7.366150939     0.000000000  0.000000000  0.135756110

  length of vectors
     3.683144567  3.683144567  7.366150939     0.271507127  0.271507127  0.135756110


 
 k-points in units of 2pi/SCALE and weight: Automatic mesh                          
   0.01357536  0.01357536  0.00000000       0.008
   0.04072607  0.01357536  0.00000000       0.016
   0.06787678  0.01357536  0.00000000       0.016
   0.09502749  0.01357536  0.00000000       0.016
   0.12217821  0.01357536  0.00000000       0.016
   0.04072607  0.04072607  0.00000000       0.008
   0.06787678  0.04072607  0.00000000       0.016
   0.09502749  0.04072607  0.00000000       0.016
   0.12217821  0.04072607  0.00000000       0.016
   0.06787678  0.06787678  0.00000000       0.008
   0.09502749  0.06787678  0.00000000       0.016
   0.12217821  0.06787678  0.00000000       0.016
   0.09502749  0.09502749  0.00000000       0.008
   0.12217821  0.09502749  0.00000000       0.016
   0.12217821  0.12217821  0.00000000       0.008
   0.01357536  0.01357536  0.02715122       0.016
   0.04072607  0.01357536  0.02715122       0.032
   0.06787678  0.01357536  0.02715122       0.032
   0.09502749  0.01357536  0.02715122       0.032
   0.12217821  0.01357536  0.02715122       0.032
   0.04072607  0.04072607  0.02715122       0.016
   0.06787678  0.04072607  0.02715122       0.032
   0.09502749  0.04072607  0.02715122       0.032
   0.12217821  0.04072607  0.02715122       0.032
   0.06787678  0.06787678  0.02715122       0.016
   0.09502749  0.06787678  0.02715122       0.032
   0.12217821  0.06787678  0.02715122       0.032
   0.09502749  0.09502749  0.02715122       0.016
   0.12217821  0.09502749  0.02715122       0.032
   0.12217821  0.12217821  0.02715122       0.016
   0.01357536  0.01357536  0.05430244       0.016
   0.04072607  0.01357536  0.05430244       0.032
   0.06787678  0.01357536  0.05430244       0.032
   0.09502749  0.01357536  0.05430244       0.032
   0.12217821  0.01357536  0.05430244       0.032
   0.04072607  0.04072607  0.05430244       0.016
   0.06787678  0.04072607  0.05430244       0.032
   0.09502749  0.04072607  0.05430244       0.032
   0.12217821  0.04072607  0.05430244       0.032
   0.06787678  0.06787678  0.05430244       0.016
   0.09502749  0.06787678  0.05430244       0.032
   0.12217821  0.06787678  0.05430244       0.032
   0.09502749  0.09502749  0.05430244       0.016
   0.12217821  0.09502749  0.05430244       0.032
   0.12217821  0.12217821  0.05430244       0.016
 
 k-points in reciprocal lattice and weights: Automatic mesh                          
   0.05000000  0.05000000  0.00000000       0.008
   0.15000000  0.05000000  0.00000000       0.016
   0.25000000  0.05000000  0.00000000       0.016
   0.35000000  0.05000000  0.00000000       0.016
   0.45000000  0.05000000  0.00000000       0.016
   0.15000000  0.15000000  0.00000000       0.008
   0.25000000  0.15000000  0.00000000       0.016
   0.35000000  0.15000000  0.00000000       0.016
   0.45000000  0.15000000  0.00000000       0.016
   0.25000000  0.25000000  0.00000000       0.008
   0.35000000  0.25000000  0.00000000       0.016
   0.45000000  0.25000000  0.00000000       0.016
   0.35000000  0.35000000  0.00000000       0.008
   0.45000000  0.35000000  0.00000000       0.016
   0.45000000  0.45000000  0.00000000       0.008
   0.05000000  0.05000000  0.20000000       0.016
   0.15000000  0.05000000  0.20000000       0.032
   0.25000000  0.05000000  0.20000000       0.032
   0.35000000  0.05000000  0.20000000       0.032
   0.45000000  0.05000000  0.20000000       0.032
   0.15000000  0.15000000  0.20000000       0.016
   0.25000000  0.15000000  0.20000000       0.032
   0.35000000  0.15000000  0.20000000       0.032
   0.45000000  0.15000000  0.20000000       0.032
   0.25000000  0.25000000  0.20000000       0.016
   0.35000000  0.25000000  0.20000000       0.032
   0.45000000  0.25000000  0.20000000       0.032
   0.35000000  0.35000000  0.20000000       0.016
   0.45000000  0.35000000  0.20000000       0.032
   0.45000000  0.45000000  0.20000000       0.016
   0.05000000  0.05000000  0.40000000       0.016
   0.15000000  0.05000000  0.40000000       0.032
   0.25000000  0.05000000  0.40000000       0.032
   0.35000000  0.05000000  0.40000000       0.032
   0.45000000  0.05000000  0.40000000       0.032
   0.15000000  0.15000000  0.40000000       0.016
   0.25000000  0.15000000  0.40000000       0.032
   0.35000000  0.15000000  0.40000000       0.032
   0.45000000  0.15000000  0.40000000       0.032
   0.25000000  0.25000000  0.40000000       0.016
   0.35000000  0.25000000  0.40000000       0.032
   0.45000000  0.25000000  0.40000000       0.032
   0.35000000  0.35000000  0.40000000       0.016
   0.45000000  0.35000000  0.40000000       0.032
   0.45000000  0.45000000  0.40000000       0.016
 
 position of ions in fractional coordinates (direct lattice) 
   0.00000000  0.00000000  0.50000000
   0.50000000  0.50000000  0.00000000
   0.00000000  0.50000000  0.25000000
   0.50000000  0.00000000  0.25000000
   0.00000000  0.50000000  0.75000000
   0.50000000  0.00000000  0.75000000
   0.00000000  0.00000000  0.00000000
   0.50000000  0.50000000  0.50000000
 
 position of ions in cartesian coordinates  (Angst):
   0.00000000  0.00000000  3.68307547
   1.84157228  1.84157228  0.00000000
   0.00000000  1.84157228  1.84153773
   1.84157228  0.00000000  1.84153773
   0.00000000  1.84157228  5.52461320
   1.84157228  0.00000000  5.52461320
   0.00000000  0.00000000  0.00000000
   1.84157228  1.84157228  3.68307547
 


--------------------------------------------------------------------------------------------------------


 k-point  1 :  0.05000.05000.0000  plane waves:    1171
 k-point  2 :  0.15000.05000.0000  plane waves:    1156
 k-point  3 :  0.25000.05000.0000  plane waves:    1151
 k-point  4 :  0.35000.05000.0000  plane waves:    1151
 k-point  5 :  0.45000.05000.0000  plane waves:    1145
 k-point  6 :  0.15000.15000.0000  plane waves:    1143
 k-point  7 :  0.25000.15000.0000  plane waves:    1154
 k-point  8 :  0.35000.15000.0000  plane waves:    1158
 k-point  9 :  0.45000.15000.0000  plane waves:    1158
 k-point 10 :  0.25000.25000.0000  plane waves:    1159
 k-point 11 :  0.35000.25000.0000  plane waves:    1151
 k-point 12 :  0.45000.25000.0000  plane waves:    1151
 k-point 13 :  0.35000.35000.0000  plane waves:    1156
 k-point 14 :  0.45000.35000.0000  plane waves:    1158
 k-point 15 :  0.45000.45000.0000  plane waves:    1150
 k-point 16 :  0.05000.05000.2000  plane waves:    1164
 k-point 17 :  0.15000.05000.2000  plane waves:    1147
 k-point 18 :  0.25000.05000.2000  plane waves:    1146
 k-point 19 :  0.35000.05000.2000  plane waves:    1151
 k-point 20 :  0.45000.05000.2000  plane waves:    1153
 k-point 21 :  0.15000.15000.2000  plane waves:    1145
 k-point 22 :  0.25000.15000.2000  plane waves:    1149
 k-point 23 :  0.35000.15000.2000  plane waves:    1150
 k-point 24 :  0.45000.15000.2000  plane waves:    1150
 k-point 25 :  0.25000.25000.2000  plane waves:    1150
 k-point 26 :  0.35000.25000.2000  plane waves:    1159
 k-point 27 :  0.45000.25000.2000  plane waves:    1158
 k-point 28 :  0.35000.35000.2000  plane waves:    1155
 k-point 29 :  0.45000.35000.2000  plane waves:    1162
 k-point 30 :  0.45000.45000.2000  plane waves:    1158
 k-point 31 :  0.05000.05000.4000  plane waves:    1143
 k-point 32 :  0.15000.05000.4000  plane waves:    1147
 k-point 33 :  0.25000.05000.4000  plane waves:    1143
 k-point 34 :  0.35000.05000.4000  plane waves:    1151
 k-point 35 :  0.45000.05000.4000  plane waves:    1158
 k-point 36 :  0.15000.15000.4000  plane waves:    1147
 k-point 37 :  0.25000.15000.4000  plane waves:    1150
 k-point 38 :  0.35000.15000.4000  plane waves:    1148
 k-point 39 :  0.45000.15000.4000  plane waves:    1148
 k-point 40 :  0.25000.25000.4000  plane waves:    1162
 k-point 41 :  0.35000.25000.4000  plane waves:    1156
 k-point 42 :  0.45000.25000.4000  plane waves:    1156
 k-point 43 :  0.35000.35000.4000  plane waves:    1157
 k-point 44 :  0.45000.35000.4000  plane waves:    1157
 k-point 45 :  0.45000.45000.4000  plane waves:    1166

 maximum and minimum number of plane-waves per node :      1171     1143

 maximum number of plane-waves:      1171
 maximum index in each direction: 
   IXMAX=    5   IYMAX=    5   IZMAX=   10
   IXMIN=   -5   IYMIN=   -5   IZMIN=  -10

 WARNING: aliasing errors must be expected set NGX to  22 to avoid them
 WARNING: aliasing errors must be expected set NGY to  22 to avoid them
 WARNING: aliasing errors must be expected set NGZ to  42 to avoid them
 aliasing errors are usually negligible using standard VASP settings
 and one can safely disregard these warnings

 serial   3D FFT for wavefunctions
 parallel 3D FFT for charge:
    minimum data exchange during FFTs selected (reduces bandwidth)


 total amount of memory used by VASP on root node    57590. kBytes
========================================================================

   base      :      30000. kBytes
   nonl-proj :      15339. kBytes
   fftplans  :        594. kBytes
   grid      :       1269. kBytes
   one-center:        124. kBytes
   wavefun   :      10264. kBytes
 
 Broyden mixing: mesh for mixing (old mesh)
   NGX = 11   NGY = 11   NGZ = 21
  (NGX  = 32   NGY  = 32   NGZ  = 64)
  gives a total of   2541 points

 initial charge density was supplied:
 charge density of overlapping atoms calculated
 number of electron      72.0000000 magnetization 
 keeping initial charge density in first step


--------------------------------------------------------------------------------------------------------


 Maximum index for augmentation-charges          793 (set IRDMAX)


--------------------------------------------------------------------------------------------------------


 First call to EWALD:  gamma=   0.382
 Maximum number of real-space cells 3x 3x 2
 Maximum number of reciprocal cells 2x 2x 4

    FEWALD:  cpu time    0.00: real time    0.00


----------------------------------------- Iteration    1(   1)  ---------------------------------------


    POTLOK:  cpu time    0.01: real time    0.01
    SETDIJ:  cpu time    0.01: real time    0.01
     EDDAV:  cpu time    1.56: real time    1.56
       DOS:  cpu time    0.00: real time    0.00
    --------------------------------------------
      LOOP:  cpu time    1.59: real time    1.59

 eigenvalue-minimisations  :  3960
 total energy-change (2. order) : 0.5006947E+03  (-0.2101396E+04)
 number of electron      72.0000000 magnetization 
 augmentation part       72.0000000 magnetization 

 Free energy of the ion-electron system (eV)
  ---------------------------------------------------
  alpha Z        PSCENC =       285.81197300
  Ewald energy   TEWEN  =     -6238.41618783
  -1/2 Hartree   DENC   =     -2663.65934328
  -exchange  EXHF       =         0.00000000
  -V(xc)+E(xc)   XCENC  =       223.08978215
  PAW double counting   =      7501.64027352    -8072.78204427
  entropy T*S    EENTRO =        -0.00488114
  eigenvalues    EBANDS =      1012.32650699
  atomic energy  EATOM  =      8452.68860453
  ---------------------------------------------------
  free energy    TOTEN  =       500.69468368 eV

  energy without entropy =      500.69956482  energy(sigma->0) =      500.69631073


--------------------------------------------------------------------------------------------------------




----------------------------------------- Iteration    1(   2)  ---------------------------------------


     EDDAV:  cpu time    1.53: real time    1.55
       DOS:  cpu time    0.01: real time    0.00
    --------------------------------------------
      LOOP:  cpu time    1.54: real time    1.56

 eigenvalue-minimisations  :  3960
 total energy-change (2. order) :-0.4917778E+03  (-0.4796448E+03)
 number of electron      72.0000000 magnetization 
 augmentation part       72.0000000 magnetization 

 Free energy of the ion-electron system (eV)
  ---------------------------------------------------
  alpha Z        PSCENC =       285.81197300
  Ewald energy   TEWEN  =     -6238.41618783
  -1/2 Hartree   DENC   =     -2663.65934328
  -exchange  EXHF       =         0.00000000
  -V(xc)+E(xc)   XCENC  =       223.08978215
  PAW double counting   =      7501.64027352    -8072.78204427
  entropy T*S    EENTRO =         0.00148874
  eigenvalues    EBANDS =       520.54238446
  atomic energy  EATOM  =      8452.68860453
  ---------------------------------------------------
  free energy    TOTEN  =         8.91693103 eV

  energy without entropy =        8.91544229  energy(sigma->0) =        8.91643479


--------------------------------------------------------------------------------------------------------




----------------------------------------- Iteration    1(   3)  ---------------------------------------


     EDDAV:  cpu time    1.63: real time    1.64
       DOS:  cpu time    0.01: real time    0.00
    --------------------------------------------
      LOOP:  cpu time    1.64: real time    1.65

 eigenvalue-minimisations  :  4148
 total energy-change (2. order) :-0.4703645E+02  (-0.4471574E+02)
 number of electron      72.0000000 magnetization 
 augmentation part       72.0000000 magnetization 

 Free energy of the ion-electron system (eV)
  ---------------------------------------------------
  alpha Z        PSCENC =       285.81197300
  Ewald energy   TEWEN  =     -6238.41618783
  -1/2 Hartree   DENC   =     -2663.65934328
  -exchange  EXHF       =         0.00000000
  -V(xc)+E(xc)   XCENC  =       223.08978215
  PAW double counting   =      7501.64027352    -8072.78204427
  entropy T*S    EENTRO =        -0.00090134
  eigenvalues    EBANDS =       473.50831986
  atomic energy  EATOM  =      8452.68860453
  ---------------------------------------------------
  free energy    TOTEN  =       -38.11952365 eV

  energy without entropy =      -38.11862232  energy(sigma->0) =      -38.11922321


--------------------------------------------------------------------------------------------------------




----------------------------------------- Iteration    1(   4)  ---------------------------------------


     EDDAV:  cpu time    1.95: real time    1.96
       DOS:  cpu time    0.01: real time    0.00
    --------------------------------------------
      LOOP:  cpu time    1.96: real time    1.97

 eigenvalue-minimisations  :  5304
 total energy-change (2. order) :-0.1416291E+01  (-0.1406740E+01)
 number of electron      72.0000000 magnetization 
 augmentation part       72.0000000 magnetization 

 Free energy of the ion-electron system (eV)
  ---------------------------------------------------
  alpha Z        PSCENC =       285.81197300
  Ewald energy   TEWEN  =     -6238.41618783
  -1/2 Hartree   DENC   =     -2663.65934328
  -exchange  EXHF       =         0.00000000
  -V(xc)+E(xc)   XCENC  =       223.08978215
  PAW double counting   =      7501.64027352    -8072.78204427
  entropy T*S    EENTRO =        -0.00184388
  eigenvalues    EBANDS =       472.09297134
  atomic energy  EATOM  =      8452.68860453
  ---------------------------------------------------
  free energy    TOTEN  =       -39.53581471 eV

  energy without entropy =      -39.53397083  energy(sigma->0) =      -39.53520008


--------------------------------------------------------------------------------------------------------




----------------------------------------- Iteration    1(   5)  ---------------------------------------


     EDDAV:  cpu time    2.11: real time    2.12
       DOS:  cpu time    0.01: real time    0.00
    CHARGE:  cpu time    0.06: real time    0.06
    MIXING:  cpu time    0.00: real time    0.00
    --------------------------------------------
      LOOP:  cpu time    2.18: real time    2.19

 eigenvalue-minimisations  :  6044
 total energy-change (2. order) :-0.3176581E-01  (-0.3175462E-01)
 number of electron      72.0002439 magnetization 
 augmentation part       37.6409444 magnetization 

 Broyden mixing:
  rms(total) = 0.24174E+01    rms(broyden)= 0.24167E+01
  rms(prec ) = 0.35835E+01
  weight for this iteration     100.00

 Free energy of the ion-electron system (eV)
  ---------------------------------------------------
  alpha Z        PSCENC =       285.81197300
  Ewald energy   TEWEN  =     -6238.41618783
  -1/2 Hartree   DENC   =     -2663.65934328
  -exchange  EXHF       =         0.00000000
  -V(xc)+E(xc)   XCENC  =       223.08978215
  PAW double counting   =      7501.64027352    -8072.78204427
  entropy T*S    EENTRO =        -0.00184343
  eigenvalues    EBANDS =       472.06120508
  atomic energy  EATOM  =      8452.68860453
  ---------------------------------------------------
  free energy    TOTEN  =       -39.56758052 eV

  energy without entropy =      -39.56573709  energy(sigma->0) =      -39.56696604


--------------------------------------------------------------------------------------------------------




----------------------------------------- Iteration    1(   6)  ---------------------------------------


    POTLOK:  cpu time    0.01: real time    0.01
    SETDIJ:  cpu time    0.01: real time    0.01
    EDDIAG:  cpu time    0.25: real time    0.26
  RMM-DIIS:  cpu time    0.94: real time    0.94
    ORTHCH:  cpu time    0.05: real time    0.06
       DOS:  cpu time    0.00: real time    0.00
    CHARGE:  cpu time    0.06: real time    0.06
    MIXING:  cpu time    0.00: real time    0.00
    --------------------------------------------
      LOOP:  cpu time    1.32: real time    1.33

 eigenvalue-minimisations  :  3961
 total energy-change (2. order) : 0.1418544E+01  (-0.1287534E+02)
 number of electron      72.0002746 magnetization 
 augmentation part       45.0741280 magnetization 

 Broyden mixing:
  rms(total) = 0.16860E+01    rms(broyden)= 0.16850E+01
  rms(prec ) = 0.24043E+01
  weight for this iteration     100.00

 eigenvalues of (default mixing * dielectric matrix)
  average eigenvalue GAMMA=   0.5896
  0.5896

 Free energy of the ion-electron system (eV)
  ---------------------------------------------------
  alpha Z        PSCENC =       285.81197300
  Ewald energy   TEWEN  =     -6238.41618783
  -1/2 Hartree   DENC   =     -2422.81059493
  -exchange  EXHF       =         0.00000000
  -V(xc)+E(xc)   XCENC  =       212.33206481
  PAW double counting   =      7603.50922062    -8126.70219857
  entropy T*S    EENTRO =        -0.00248318
  eigenvalues    EBANDS =       195.44056526
  atomic energy  EATOM  =      8452.68860453
  ---------------------------------------------------
  free energy    TOTEN  =       -38.14903628 eV

  energy without entropy =      -38.14655310  energy(sigma->0) =      -38.14820855


--------------------------------------------------------------------------------------------------------




----------------------------------------- Iteration    1(   7)  ---------------------------------------


    POTLOK:  cpu time    0.01: real time    0.01
    SETDIJ:  cpu time    0.01: real time    0.01
    EDDIAG:  cpu time    0.23: real time    0.23
  RMM-DIIS:  cpu time    0.81: real time    0.81
    ORTHCH:  cpu time    0.05: real time    0.05
       DOS:  cpu time    0.00: real time    0.00
    CHARGE:  cpu time    0.06: real time    0.06
    MIXING:  cpu time    0.00: real time    0.00
    --------------------------------------------
      LOOP:  cpu time    1.17: real time    1.18

 eigenvalue-minimisations  :  3981
 total energy-change (2. order) : 0.6767291E+01  (-0.2637114E+01)
 number of electron      72.0002616 magnetization 
 augmentation part       42.0181218 magnetization 

 Broyden mixing:
  rms(total) = 0.13782E+00    rms(broyden)= 0.13675E+00
  rms(prec ) = 0.19372E+00
  weight for this iteration     100.00

 eigenvalues of (default mixing * dielectric matrix)
  average eigenvalue GAMMA=   1.1097
  0.5971  1.6222

 Free energy of the ion-electron system (eV)
  ---------------------------------------------------
  alpha Z        PSCENC =       285.81197300
  Ewald energy   TEWEN  =     -6238.41618783
  -1/2 Hartree   DENC   =     -2514.51578272
  -exchange  EXHF       =         0.00000000
  -V(xc)+E(xc)   XCENC  =       216.61904049
  PAW double counting   =      7858.63178813    -8423.40286847
  entropy T*S    EENTRO =         0.00269821
  eigenvalues    EBANDS =       331.19898941
  atomic energy  EATOM  =      8452.68860453
  ---------------------------------------------------
  free energy    TOTEN  =       -31.38174525 eV

  energy without entropy =      -31.38444346  energy(sigma->0) =      -31.38264465


--------------------------------------------------------------------------------------------------------




----------------------------------------- Iteration    1(   8)  ---------------------------------------


    POTLOK:  cpu time    0.00: real time    0.01
    SETDIJ:  cpu time    0.01: real time    0.01
    EDDIAG:  cpu time    0.22: real time    0.22
  RMM-DIIS:  cpu time    0.82: real time    0.82
    ORTHCH:  cpu time    0.05: real time    0.05
       DOS:  cpu time    0.01: real time    0.00
    CHARGE:  cpu time    0.06: real time    0.06
    MIXING:  cpu time    0.00: real time    0.00
    --------------------------------------------
      LOOP:  cpu time    1.18: real time    1.18

 eigenvalue-minimisations  :  3996
 total energy-change (2. order) : 0.2909819E-01  (-0.8994052E-01)
 number of electron      72.0002597 magnetization 
 augmentation part       41.6592015 magnetization 

 Broyden mixing:
  rms(total) = 0.15992E+00    rms(broyden)= 0.15980E+00
  rms(prec ) = 0.23376E+00
  weight for this iteration     100.00

 eigenvalues of (default mixing * dielectric matrix)
  average eigenvalue GAMMA=   1.2040
  2.1573  0.7914  0.6633

 Free energy of the ion-electron system (eV)
  ---------------------------------------------------
  alpha Z        PSCENC =       285.81197300
  Ewald energy   TEWEN  =     -6238.41618783
  -1/2 Hartree   DENC   =     -2515.20069162
  -exchange  EXHF       =         0.00000000
  -V(xc)+E(xc)   XCENC  =       216.65106184
  PAW double counting   =      8123.57144038    -8702.47404617
  entropy T*S    EENTRO =         0.00292363
  eigenvalues    EBANDS =       346.01227519
  atomic energy  EATOM  =      8452.68860453
  ---------------------------------------------------
  free energy    TOTEN  =       -31.35264705 eV

  energy without entropy =      -31.35557068  energy(sigma->0) =      -31.35362160


--------------------------------------------------------------------------------------------------------




----------------------------------------- Iteration    1(   9)  ---------------------------------------


    POTLOK:  cpu time    0.01: real time    0.01
    SETDIJ:  cpu time    0.01: real time    0.01
    EDDIAG:  cpu time    0.23: real time    0.23
  RMM-DIIS:  cpu time    0.82: real time    0.82
    ORTHCH:  cpu time    0.05: real time    0.06
       DOS:  cpu time    0.00: real time    0.00
    CHARGE:  cpu time    0.06: real time    0.06
    MIXING:  cpu time    0.01: real time    0.00
    --------------------------------------------
      LOOP:  cpu time    1.19: real time    1.20

 eigenvalue-minimisations  :  3996
 total energy-change (2. order) : 0.3944699E-01  (-0.8669245E-02)
 number of electron      72.0002605 magnetization 
 augmentation part       41.8624792 magnetization 

 Broyden mixing:
  rms(total) = 0.36598E-01    rms(broyden)= 0.36580E-01
  rms(prec ) = 0.55461E-01
  weight for this iteration     100.00

 eigenvalues of (default mixing * dielectric matrix)
  average eigenvalue GAMMA=   1.0379
  2.2092  0.8047  0.6731  0.4645

 Free energy of the ion-electron system (eV)
  ---------------------------------------------------
  alpha Z        PSCENC =       285.81197300
  Ewald energy   TEWEN  =     -6238.41618783
  -1/2 Hartree   DENC   =     -2502.34235816
  -exchange  EXHF       =         0.00000000
  -V(xc)+E(xc)   XCENC  =       216.08712560
  PAW double counting   =      8290.98382751    -8874.07579977
  entropy T*S    EENTRO =         0.00353408
  eigenvalues    EBANDS =       337.94608098
  atomic energy  EATOM  =      8452.68860453
  ---------------------------------------------------
  free energy    TOTEN  =       -31.31320006 eV

  energy without entropy =      -31.31673414  energy(sigma->0) =      -31.31437809


--------------------------------------------------------------------------------------------------------




----------------------------------------- Iteration    1(  10)  ---------------------------------------


    POTLOK:  cpu time    0.01: real time    0.01
    SETDIJ:  cpu time    0.00: real time    0.01
    EDDIAG:  cpu time    0.24: real time    0.23
  RMM-DIIS:  cpu time    0.97: real time    0.97
    ORTHCH:  cpu time    0.06: real time    0.06
       DOS:  cpu time    0.00: real time    0.00
    CHARGE:  cpu time    0.06: real time    0.06
    MIXING:  cpu time    0.00: real time    0.00
    --------------------------------------------
      LOOP:  cpu time    1.34: real time    1.35

 eigenvalue-minimisations  :  4045
 total energy-change (2. order) : 0.1723145E-02  (-0.1004746E-02)
 number of electron      72.0002606 magnetization 
 augmentation part       41.8840757 magnetization 

 Broyden mixing:
  rms(total) = 0.14844E-01    rms(broyden)= 0.14832E-01
  rms(prec ) = 0.19409E-01
  weight for this iteration     100.00

 eigenvalues of (default mixing * dielectric matrix)
  average eigenvalue GAMMA=   1.3955
  2.4824  2.4824  0.9498  0.6385  0.4242

 Free energy of the ion-electron system (eV)
  ---------------------------------------------------
  alpha Z        PSCENC =       285.81197300
  Ewald energy   TEWEN  =     -6238.41618783
  -1/2 Hartree   DENC   =     -2501.43186679
  -exchange  EXHF       =         0.00000000
  -V(xc)+E(xc)   XCENC  =       216.05279193
  PAW double counting   =      8298.36021309    -8881.44165814
  entropy T*S    EENTRO =         0.00337995
  eigenvalues    EBANDS =       337.06127334
  atomic energy  EATOM  =      8452.68860453
  ---------------------------------------------------
  free energy    TOTEN  =       -31.31147691 eV

  energy without entropy =      -31.31485686  energy(sigma->0) =      -31.31260356


--------------------------------------------------------------------------------------------------------




----------------------------------------- Iteration    1(  11)  ---------------------------------------


    POTLOK:  cpu time    0.01: real time    0.01
    SETDIJ:  cpu time    0.01: real time    0.01
    EDDIAG:  cpu time    0.27: real time    0.27
  RMM-DIIS:  cpu time    1.23: real time    1.24
    ORTHCH:  cpu time    0.06: real time    0.06
       DOS:  cpu time    0.01: real time    0.00
    CHARGE:  cpu time    0.06: real time    0.06
    MIXING:  cpu time    0.00: real time    0.00
    --------------------------------------------
      LOOP:  cpu time    1.65: real time    1.65

 eigenvalue-minimisations  :  4848
 total energy-change (2. order) : 0.4687142E-04  (-0.1720699E-03)
 number of electron      72.0002606 magnetization 
 augmentation part       41.8918064 magnetization 

 Broyden mixing:
  rms(total) = 0.59076E-02    rms(broyden)= 0.59061E-02
  rms(prec ) = 0.86008E-02
  weight for this iteration     100.00

 eigenvalues of (default mixing * dielectric matrix)
  average eigenvalue GAMMA=   1.3408
  2.5190  2.5190  0.9715  0.9715  0.6391  0.4246

 Free energy of the ion-electron system (eV)
  ---------------------------------------------------
  alpha Z        PSCENC =       285.81197300
  Ewald energy   TEWEN  =     -6238.41618783
  -1/2 Hartree   DENC   =     -2501.44897752
  -exchange  EXHF       =         0.00000000
  -V(xc)+E(xc)   XCENC  =       216.08454497
  PAW double counting   =      8295.28438334    -8877.97863366
  entropy T*S    EENTRO =         0.00330171
  eigenvalues    EBANDS =       336.65956141
  atomic energy  EATOM  =      8452.68860453
  ---------------------------------------------------
  free energy    TOTEN  =       -31.31143004 eV

  energy without entropy =      -31.31473176  energy(sigma->0) =      -31.31253061


--------------------------------------------------------------------------------------------------------




----------------------------------------- Iteration    1(  12)  ---------------------------------------


    POTLOK:  cpu time    0.01: real time    0.01
    SETDIJ:  cpu time    0.01: real time    0.01
    EDDIAG:  cpu time    0.26: real time    0.27
  RMM-DIIS:  cpu time    1.02: real time    1.02
    ORTHCH:  cpu time    0.06: real time    0.06
       DOS:  cpu time    0.01: real time    0.00
    CHARGE:  cpu time    0.06: real time    0.06
    MIXING:  cpu time    0.00: real time    0.00
    --------------------------------------------
      LOOP:  cpu time    1.43: real time    1.44

 eigenvalue-minimisations  :  4027
 total energy-change (2. order) : 0.3859611E-04  (-0.3487717E-04)
 number of electron      72.0002607 magnetization 
 augmentation part       41.9025105 magnetization 

 Broyden mixing:
  rms(total) = 0.17784E-02    rms(broyden)= 0.17748E-02
  rms(prec ) = 0.29899E-02
  weight for this iteration     100.00

 eigenvalues of (default mixing * dielectric matrix)
  average eigenvalue GAMMA=   1.4348
  3.0098  2.4474  1.5871  0.6401  0.8856  1.0485  0.4249

 Free energy of the ion-electron system (eV)
  ---------------------------------------------------
  alpha Z        PSCENC =       285.81197300
  Ewald energy   TEWEN  =     -6238.41618783
  -1/2 Hartree   DENC   =     -2500.88483187
  -exchange  EXHF       =         0.00000000
  -V(xc)+E(xc)   XCENC  =       216.05993831
  PAW double counting   =      8301.48532607    -8884.28720941
  entropy T*S    EENTRO =         0.00332081
  eigenvalues    EBANDS =       336.22767494
  atomic energy  EATOM  =      8452.68860453
  ---------------------------------------------------
  free energy    TOTEN  =       -31.31139145 eV

  energy without entropy =      -31.31471225  energy(sigma->0) =      -31.31249838


--------------------------------------------------------------------------------------------------------




----------------------------------------- Iteration    1(  13)  ---------------------------------------


    POTLOK:  cpu time    0.01: real time    0.01
    SETDIJ:  cpu time    0.01: real time    0.01
    EDDIAG:  cpu time    0.26: real time    0.27
  RMM-DIIS:  cpu time    1.12: real time    1.12
    ORTHCH:  cpu time    0.06: real time    0.06
       DOS:  cpu time    0.00: real time    0.00
    CHARGE:  cpu time    0.06: real time    0.06
    MIXING:  cpu time    0.00: real time    0.00
    --------------------------------------------
      LOOP:  cpu time    1.52: real time    1.53

 eigenvalue-minimisations  :  4309
 total energy-change (2. order) : 0.6307717E-05  (-0.4522832E-05)
 number of electron      72.0002607 magnetization 
 augmentation part       41.9021096 magnetization 

 Broyden mixing:
  rms(total) = 0.13135E-02    rms(broyden)= 0.13134E-02
  rms(prec ) = 0.19276E-02
  weight for this iteration     100.00

 eigenvalues of (default mixing * dielectric matrix)
  average eigenvalue GAMMA=   1.4937
  3.1183  2.7149  1.7891  0.4248  0.6398  1.1667  1.1667  0.9290

 Free energy of the ion-electron system (eV)
  ---------------------------------------------------
  alpha Z        PSCENC =       285.81197300
  Ewald energy   TEWEN  =     -6238.41618783
  -1/2 Hartree   DENC   =     -2500.95123668
  -exchange  EXHF       =         0.00000000
  -V(xc)+E(xc)   XCENC  =       216.06101720
  PAW double counting   =      8299.93987043    -8882.71887256
  entropy T*S    EENTRO =         0.00333386
  eigenvalues    EBANDS =       336.27011291
  atomic energy  EATOM  =      8452.68860453
  ---------------------------------------------------
  free energy    TOTEN  =       -31.31138514 eV

  energy without entropy =      -31.31471900  energy(sigma->0) =      -31.31249643


--------------------------------------------------------------------------------------------------------




----------------------------------------- Iteration    1(  14)  ---------------------------------------


    POTLOK:  cpu time    0.01: real time    0.01
    SETDIJ:  cpu time    0.01: real time    0.01
    EDDIAG:  cpu time    0.27: real time    0.27
  RMM-DIIS:  cpu time    1.01: real time    1.02
    ORTHCH:  cpu time    0.06: real time    0.06
       DOS:  cpu time    0.00: real time    0.00
    CHARGE:  cpu time    0.06: real time    0.06
    MIXING:  cpu time    0.00: real time    0.00
    --------------------------------------------
      LOOP:  cpu time    1.42: real time    1.43

 eigenvalue-minimisations  :  3926
 total energy-change (2. order) : 0.3850397E-05  (-0.1921491E-05)
 number of electron      72.0002607 magnetization 
 augmentation part       41.8993169 magnetization 

 Broyden mixing:
  rms(total) = 0.45335E-03    rms(broyden)= 0.45270E-03
  rms(prec ) = 0.61348E-03
  weight for this iteration     100.00

 eigenvalues of (default mixing * dielectric matrix)
  average eigenvalue GAMMA=   1.5754
  3.1973  2.4939  2.4939  1.9495  0.4248  0.6398  1.0888  0.9454  0.9454

 Free energy of the ion-electron system (eV)
  ---------------------------------------------------
  alpha Z        PSCENC =       285.81197300
  Ewald energy   TEWEN  =     -6238.41618783
  -1/2 Hartree   DENC   =     -2501.06220841
  -exchange  EXHF       =         0.00000000
  -V(xc)+E(xc)   XCENC  =       216.06529507
  PAW double counting   =      8298.29289024    -8881.08436363
  entropy T*S    EENTRO =         0.00333291
  eigenvalues    EBANDS =       336.38928282
  atomic energy  EATOM  =      8452.68860453
  ---------------------------------------------------
  free energy    TOTEN  =       -31.31138129 eV

  energy without entropy =      -31.31471420  energy(sigma->0) =      -31.31249226


--------------------------------------------------------------------------------------------------------




----------------------------------------- Iteration    1(  15)  ---------------------------------------


    POTLOK:  cpu time    0.02: real time    0.01
    SETDIJ:  cpu time    0.00: real time    0.01
    EDDIAG:  cpu time    0.27: real time    0.27
  RMM-DIIS:  cpu time    0.62: real time    0.62
    ORTHCH:  cpu time    0.06: real time    0.06
       DOS:  cpu time    0.00: real time    0.00
    CHARGE:  cpu time    0.06: real time    0.06
    MIXING:  cpu time    0.00: real time    0.00
    --------------------------------------------
      LOOP:  cpu time    1.03: real time    1.04

 eigenvalue-minimisations  :  2273
 total energy-change (2. order) :-0.2263467E-05  (-0.1056168E-06)
 number of electron      72.0002607 magnetization 
 augmentation part       41.8995064 magnetization 

 Broyden mixing:
  rms(total) = 0.17315E-03    rms(broyden)= 0.17310E-03
  rms(prec ) = 0.24329E-03
  weight for this iteration     100.00

 eigenvalues of (default mixing * dielectric matrix)
  average eigenvalue GAMMA=   1.5258
  3.4437  2.5242  2.5242  1.8696  0.4248  0.6398  1.0505  0.9482  0.9482  0.8849

 Free energy of the ion-electron system (eV)
  ---------------------------------------------------
  alpha Z        PSCENC =       285.81197300
  Ewald energy   TEWEN  =     -6238.41618783
  -1/2 Hartree   DENC   =     -2501.01864012
  -exchange  EXHF       =         0.00000000
  -V(xc)+E(xc)   XCENC  =       216.06313654
  PAW double counting   =      8297.97723319    -8880.80165004
  entropy T*S    EENTRO =         0.00333394
  eigenvalues    EBANDS =       336.38081324
  atomic energy  EATOM  =      8452.68860453
  ---------------------------------------------------
  free energy    TOTEN  =       -31.31138355 eV

  energy without entropy =      -31.31471749  energy(sigma->0) =      -31.31249486


--------------------------------------------------------------------------------------------------------




----------------------------------------- Iteration    1(  16)  ---------------------------------------


    POTLOK:  cpu time    0.01: real time    0.01
    SETDIJ:  cpu time    0.00: real time    0.01
    EDDIAG:  cpu time    0.27: real time    0.26
  RMM-DIIS:  cpu time    0.60: real time    0.61
    ORTHCH:  cpu time    0.06: real time    0.06
       DOS:  cpu time    0.00: real time    0.00
    --------------------------------------------
      LOOP:  cpu time    0.95: real time    0.96

 eigenvalue-minimisations  :  2187
 total energy-change (2. order) : 0.4233516E-07  (-0.4229234E-07)
 number of electron      72.0002607 magnetization 
 augmentation part       41.8995064 magnetization 

 Free energy of the ion-electron system (eV)
  ---------------------------------------------------
  alpha Z        PSCENC =       285.81197300
  Ewald energy   TEWEN  =     -6238.41618783
  -1/2 Hartree   DENC   =     -2501.01801094
  -exchange  EXHF       =         0.00000000
  -V(xc)+E(xc)   XCENC  =       216.06300197
  PAW double counting   =      8297.79194627    -8880.61482468
  entropy T*S    EENTRO =         0.00333399
  eigenvalues    EBANDS =       336.37878018
  atomic energy  EATOM  =      8452.68860453
  ---------------------------------------------------
  free energy    TOTEN  =       -31.31138351 eV

  energy without entropy =      -31.31471750  energy(sigma->0) =      -31.31249484


--------------------------------------------------------------------------------------------------------




 average (electrostatic) potential at core
  the test charge radii are     0.9430  1.0406
  (the norm of the test charge is              1.0000)
       1 -63.4960       2 -63.4960       3 -63.4998       4 -63.4998       5 -63.4998
       6 -63.4998       7 -72.1851       8 -72.1851
 
 
 
 E-fermi :   8.2354     XC(G=0): -12.1320     alpha+bet :-14.4325


 k-point   1 :       0.0500    0.0500    0.0000
  band No.  band energies     occupation 
      1      -2.0590      2.00000
      2       0.2712      2.00000
      3       0.9864      2.00000
      4       3.3106      2.00000
      5       3.4161      2.00000
      6       3.6186      2.00000
      7       3.6815      2.00000
      8       3.8633      2.00000
      9       3.8886      2.00000
     10       3.9041      2.00000
     11       4.0714      2.00000
     12       4.1004      2.00000
     13       4.1711      2.00000
     14       4.4491      2.00000
     15       4.6015      2.00000
     16       4.6158      2.00000
     17       4.8530      2.00000
     18       5.0041      2.00000
     19       5.1916      2.00000
     20       5.3158      2.00000
     21       5.3306      2.00000
     22       5.4491      2.00000
     23       5.5585      2.00000
     24       5.5592      2.00000
     25       5.6214      2.00000
     26       5.6512      2.00000
     27       5.7782      2.00000
     28       5.8120      2.00000
     29       5.9160      2.00000
     30       5.9438      2.00000
     31       5.9517      2.00000
     32       6.1404      2.00000
     33       6.1967      2.00000
     34       7.9139      2.04543
     35       7.9540      2.06301
     36       8.1980      1.31070
     37      11.3325      0.00000
     38      11.6266      0.00000
     39      11.8829      0.00000
     40      12.0320      0.00000
     41      12.7535      0.00000
     42      12.7721      0.00000
     43      13.0863      0.00000
     44      13.6110      0.00000

 k-point   2 :       0.1500    0.0500    0.0000
  band No.  band energies     occupation 
      1      -1.8329      2.00000
      2       0.4520      2.00000
      3       1.1904      2.00000
      4       3.2962      2.00000
      5       3.5087      2.00000
      6       3.5938      2.00000
      7       3.7517      2.00000
      8       3.8105      2.00000
      9       3.9125      2.00000
     10       3.9546      2.00000
     11       3.9750      2.00000
     12       4.1762      2.00000
     13       4.2369      2.00000
     14       4.4910      2.00000
     15       4.5476      2.00000
     16       4.5975      2.00000
     17       4.6993      2.00000
     18       5.0129      2.00000
     19       5.2137      2.00000
     20       5.2506      2.00000
     21       5.3037      2.00000
     22       5.3650      2.00000
     23       5.4539      2.00000
     24       5.5511      2.00000
     25       5.5680      2.00000
     26       5.6659      2.00000
     27       5.7117      2.00000
     28       5.7575      2.00000
     29       5.8848      2.00000
     30       5.9129      2.00000
     31       5.9327      2.00000
     32       5.9835      2.00000
     33       6.1171      2.00000
     34       6.9272      2.00000
     35       8.4038      0.00012
     36       8.6541     -0.01169
     37       9.9459      0.00000
     38      10.4388      0.00000
     39      11.7349      0.00000
     40      12.2824      0.00000
     41      12.8498      0.00000
     42      13.0099      0.00000
     43      14.0917      0.00000
     44      14.4682      0.00000

 k-point   3 :       0.2500    0.0500    0.0000
  band No.  band energies     occupation 
      1      -1.3863      2.00000
      2       0.7975      2.00000
      3       1.5840      2.00000
      4       2.9642      2.00000
      5       3.6053      2.00000
      6       3.6645      2.00000
      7       3.6852      2.00000
      8       3.8420      2.00000
      9       3.9034      2.00000
     10       3.9764      2.00000
     11       4.0441      2.00000
     12       4.3087      2.00000
     13       4.3652      2.00000
     14       4.4478      2.00000
     15       4.4916      2.00000
     16       4.5378      2.00000
     17       4.5711      2.00000
     18       5.0191      2.00000
     19       5.0358      2.00000
     20       5.2021      2.00000
     21       5.2567      2.00000
     22       5.3476      2.00000
     23       5.4071      2.00000
     24       5.4590      2.00000
     25       5.5016      2.00000
     26       5.5017      2.00000
     27       5.5541      2.00000
     28       5.6280      2.00000
     29       5.6798      2.00000
     30       5.9089      2.00000
     31       5.9941      2.00000
     32       6.0147      2.00000
     33       6.0198      2.00000
     34       6.0252      2.00000
     35       8.6105     -0.02342
     36       8.8526     -0.00011
     37       9.1389      0.00000
     38       9.4426      0.00000
     39      12.1305      0.00000
     40      12.8572      0.00000
     41      13.0454      0.00000
     42      13.2183      0.00000
     43      14.4101      0.00000
     44      15.3558      0.00000

 k-point   4 :       0.3500    0.0500    0.0000
  band No.  band energies     occupation 
      1      -0.7322      2.00000
      2       1.2410      2.00000
      3       2.1306      2.00000
      4       2.2395      2.00000
      5       3.1933      2.00000
      6       3.7561      2.00000
      7       3.8282      2.00000
      8       3.8442      2.00000
      9       3.9252      2.00000
     10       4.0702      2.00000
     11       4.1881      2.00000
     12       4.2865      2.00000
     13       4.3795      2.00000
     14       4.4543      2.00000
     15       4.4802      2.00000
     16       4.5467      2.00000
     17       4.6964      2.00000
     18       4.8752      2.00000
     19       4.9998      2.00000
     20       5.1188      2.00000
     21       5.1988      2.00000
     22       5.2430      2.00000
     23       5.2894      2.00000
     24       5.3119      2.00000
     25       5.3293      2.00000
     26       5.3678      2.00000
     27       5.3863      2.00000
     28       5.4667      2.00000
     29       5.6178      2.00000
     30       5.6557      2.00000
     31       5.9023      2.00000
     32       5.9425      2.00000
     33       6.1058      2.00000
     34       6.1658      2.00000
     35       7.5702      2.00003
     36       7.5970      2.00006
     37      10.0421      0.00000
     38      10.3544      0.00000
     39      12.6823      0.00000
     40      13.2695      0.00000
     41      13.5278      0.00000
     42      13.6509      0.00000
     43      13.8053      0.00000
     44      13.9628      0.00000

 k-point   5 :       0.4500    0.0500    0.0000
  band No.  band energies     occupation 
      1       0.1005      2.00000
      2       1.0209      2.00000
      3       2.0630      2.00000
      4       2.6383      2.00000
      5       2.7565      2.00000
      6       3.3447      2.00000
      7       3.9413      2.00000
      8       3.9536      2.00000
      9       3.9970      2.00000
     10       4.1136      2.00000
     11       4.1820      2.00000
     12       4.2994      2.00000
     13       4.3791      2.00000
     14       4.4857      2.00000
     15       4.6845      2.00000
     16       4.7472      2.00000
     17       4.7926      2.00000
     18       4.8602      2.00000
     19       4.9015      2.00000
     20       4.9337      2.00000
     21       5.0211      2.00000
     22       5.0412      2.00000
     23       5.2288      2.00000
     24       5.2610      2.00000
     25       5.2611      2.00000
     26       5.2644      2.00000
     27       5.3970      2.00000
     28       5.4275      2.00000
     29       5.5100      2.00000
     30       5.5410      2.00000
     31       5.8991      2.00000
     32       5.9083      2.00000
     33       6.2944      2.00000
     34       6.4205      2.00000
     35       6.7357      2.00000
     36       6.8553      2.00000
     37      11.0776      0.00000
     38      11.4273      0.00000
     39      12.2099      0.00000
     40      12.6305      0.00000
     41      13.5744      0.00000
     42      13.8708      0.00000
     43      13.8744      0.00000
     44      14.5975      0.00000

 k-point   6 :       0.1500    0.1500    0.0000
  band No.  band energies     occupation 
      1      -1.6090      2.00000
      2       0.6254      2.00000
      3       1.3864      2.00000
      4       3.3725      2.00000
      5       3.5131      2.00000
      6       3.5838      2.00000
      7       3.6615      2.00000
      8       3.8327      2.00000
      9       3.9271      2.00000
     10       4.0316      2.00000
     11       4.0776      2.00000
     12       4.1878      2.00000
     13       4.2819      2.00000
     14       4.4562      2.00000
     15       4.5297      2.00000
     16       4.5581      2.00000
     17       4.6126      2.00000
     18       5.0116      2.00000
     19       5.1565      2.00000
     20       5.2306      2.00000
     21       5.2719      2.00000
     22       5.3327      2.00000
     23       5.4006      2.00000
     24       5.4949      2.00000
     25       5.5519      2.00000
     26       5.5708      2.00000
     27       5.6016      2.00000
     28       5.7021      2.00000
     29       5.7705      2.00000
     30       5.8839      2.00000
     31       5.9077      2.00000
     32       5.9885      2.00000
     33       6.0808      2.00000
     34       7.2021      2.00000
     35       7.5427      2.00001
     36       9.0644      0.00000
     37       9.6871      0.00000
     38      10.3381      0.00000
     39      10.6906      0.00000
     40      11.1289      0.00000
     41      12.9316      0.00000
     42      14.4695      0.00000
     43      14.7050      0.00000
     44      15.0531      0.00000

 k-point   7 :       0.2500    0.1500    0.0000
  band No.  band energies     occupation 
      1      -1.1670      2.00000
      2       0.9538      2.00000
      3       1.7613      2.00000
      4       3.0982      2.00000
      5       3.4235      2.00000
      6       3.6153      2.00000
      7       3.7476      2.00000
      8       3.9403      2.00000
      9       3.9986      2.00000
     10       4.0713      2.00000
     11       4.1293      2.00000
     12       4.3115      2.00000
     13       4.3195      2.00000
     14       4.3869      2.00000
     15       4.3881      2.00000
     16       4.5917      2.00000
     17       4.6013      2.00000
     18       4.9181      2.00000
     19       5.0011      2.00000
     20       5.1763      2.00000
     21       5.2496      2.00000
     22       5.2663      2.00000
     23       5.3059      2.00000
     24       5.3324      2.00000
     25       5.4417      2.00000
     26       5.4790      2.00000
     27       5.5177      2.00000
     28       5.6276      2.00000
     29       5.6864      2.00000
     30       5.9146      2.00000
     31       5.9405      2.00000
     32       5.9990      2.00000
     33       6.0245      2.00000
     34       6.3827      2.00000
     35       8.0367      2.04893
     36       8.5909     -0.03066
     37       9.0080      0.00000
     38       9.7648      0.00000
     39      10.7879      0.00000
     40      11.3994      0.00000
     41      12.9278      0.00000
     42      13.6998      0.00000
     43      14.8245      0.00000
     44      15.5081      0.00000

 k-point   8 :       0.3500    0.1500    0.0000
  band No.  band energies     occupation 
      1      -0.5211      2.00000
      2       1.3648      2.00000
      3       2.2739      2.00000
      4       2.4105      2.00000
      5       3.1022      2.00000
      6       3.8050      2.00000
      7       3.8232      2.00000
      8       3.8908      2.00000
      9       4.0632      2.00000
     10       4.1246      2.00000
     11       4.2387      2.00000
     12       4.2444      2.00000
     13       4.3388      2.00000
     14       4.4729      2.00000
     15       4.5306      2.00000
     16       4.5585      2.00000
     17       4.7112      2.00000
     18       4.7250      2.00000
     19       4.9020      2.00000
     20       4.9737      2.00000
     21       5.1567      2.00000
     22       5.1937      2.00000
     23       5.2969      2.00000
     24       5.2980      2.00000
     25       5.3383      2.00000
     26       5.4270      2.00000
     27       5.4368      2.00000
     28       5.4736      2.00000
     29       5.5828      2.00000
     30       5.8911      2.00000
     31       5.9009      2.00000
     32       5.9614      2.00000
     33       6.0762      2.00000
     34       6.1054      2.00000
     35       7.5522      2.00002
     36       7.7049      2.00114
     37       8.7785     -0.00084
     38      10.6438      0.00000
     39      11.2531      0.00000
     40      11.9583      0.00000
     41      12.1136      0.00000
     42      13.6791      0.00000
     43      14.0682      0.00000
     44      14.1995      0.00000

 k-point   9 :       0.4500    0.1500    0.0000
  band No.  band energies     occupation 
      1       0.2972      2.00000
      2       1.1833      2.00000
      3       2.1737      2.00000
      4       2.6535      2.00000
      5       2.8485      2.00000
      6       3.3875      2.00000
      7       3.9807      2.00000
      8       3.9892      2.00000
      9       4.0738      2.00000
     10       4.1240      2.00000
     11       4.2736      2.00000
     12       4.3776      2.00000
     13       4.3971      2.00000
     14       4.5215      2.00000
     15       4.5917      2.00000
     16       4.6353      2.00000
     17       4.6785      2.00000
     18       4.7596      2.00000
     19       4.8625      2.00000
     20       4.9702      2.00000
     21       5.0458      2.00000
     22       5.0476      2.00000
     23       5.2399      2.00000
     24       5.2400      2.00000
     25       5.2740      2.00000
     26       5.3606      2.00000
     27       5.4312      2.00000
     28       5.4854      2.00000
     29       5.5251      2.00000
     30       5.6489      2.00000
     31       5.8851      2.00000
     32       5.9052      2.00000
     33       6.2794      2.00000
     34       6.3621      2.00000
     35       6.7692      2.00000
     36       6.8122      2.00000
     37       9.6511      0.00000
     38      10.6582      0.00000
     39      11.6597      0.00000
     40      12.1255      0.00000
     41      12.7989      0.00000
     42      13.0469      0.00000
     43      13.0632      0.00000
     44      14.1599      0.00000

 k-point  10 :       0.2500    0.2500    0.0000
  band No.  band energies     occupation 
      1      -0.7353      2.00000
      2       1.2425      2.00000
      3       2.0930      2.00000
      4       3.2114      2.00000
      5       3.2632      2.00000
      6       3.4136      2.00000
      7       3.8910      2.00000
      8       4.0701      2.00000
      9       4.1160      2.00000
     10       4.1173      2.00000
     11       4.1720      2.00000
     12       4.2510      2.00000
     13       4.2854      2.00000
     14       4.3858      2.00000
     15       4.4657      2.00000
     16       4.5962      2.00000
     17       4.6566      2.00000
     18       4.7668      2.00000
     19       4.8877      2.00000
     20       4.9658      2.00000
     21       5.1693      2.00000
     22       5.2322      2.00000
     23       5.2599      2.00000
     24       5.2913      2.00000
     25       5.4187      2.00000
     26       5.4365      2.00000
     27       5.5315      2.00000
     28       5.5394      2.00000
     29       5.8059      2.00000
     30       5.8093      2.00000
     31       5.9469      2.00000
     32       5.9500      2.00000
     33       6.0226      2.00000
     34       6.5611      2.00000
     35       7.2619      2.00000
     36       8.2298      1.04762
     37       8.7980     -0.00051
     38      10.0515      0.00000
     39      10.4064      0.00000
     40      10.4474      0.00000
     41      11.7142      0.00000
     42      13.5839      0.00000
     43      14.1038      0.00000
     44      14.6912      0.00000

 k-point  11 :       0.3500    0.2500    0.0000
  band No.  band energies     occupation 
      1      -0.1079      2.00000
      2       1.5845      2.00000
      3       2.5292      2.00000
      4       2.7140      2.00000
      5       2.9627      2.00000
      6       3.6632      2.00000
      7       3.8137      2.00000
      8       4.0325      2.00000
      9       4.1711      2.00000
     10       4.1781      2.00000
     11       4.2495      2.00000
     12       4.3190      2.00000
     13       4.3621      2.00000
     14       4.5374      2.00000
     15       4.5617      2.00000
     16       4.6496      2.00000
     17       4.6594      2.00000
     18       4.6825      2.00000
     19       4.7384      2.00000
     20       4.9277      2.00000
     21       5.0460      2.00000
     22       5.1645      2.00000
     23       5.2362      2.00000
     24       5.2949      2.00000
     25       5.3398      2.00000
     26       5.4536      2.00000
     27       5.4601      2.00000
     28       5.5501      2.00000
     29       5.6089      2.00000
     30       5.8863      2.00000
     31       5.9766      2.00000
     32       5.9909      2.00000
     33       6.0394      2.00000
     34       6.1186      2.00000
     35       7.4238      2.00000
     36       7.6228      2.00013
     37       7.7817      2.00610
     38      10.1271      0.00000
     39      10.4482      0.00000
     40      10.6649      0.00000
     41      11.3017      0.00000
     42      12.7907      0.00000
     43      13.4166      0.00000
     44      13.9434      0.00000

 k-point  12 :       0.4500    0.2500    0.0000
  band No.  band energies     occupation 
      1       0.6764      2.00000
      2       1.4770      2.00000
      3       2.3647      2.00000
      4       2.6568      2.00000
      5       2.9967      2.00000
      6       3.4335      2.00000
      7       3.9289      2.00000
[...]
      8       3.9126      2.00000
      9       4.1252      2.00000
     10       4.1505      2.00000
     11       4.3596      2.00000
     12       4.3685      2.00000
     13       4.3691      2.00000
     14       4.3763      2.00000
     15       4.6662      2.00000
     16       4.6926      2.00000
     17       4.8245      2.00000
     18       4.9098      2.00000
     19       4.9444      2.00000
     20       5.1075      2.00000
     21       5.3164      2.00000
     22       5.3239      2.00000
     23       5.3351      2.00000
     24       5.4050      2.00000
     25       5.6133      2.00000
     26       5.6328      2.00000
     27       5.6883      2.00000
     28       5.7163      2.00000
     29       5.7748      2.00000
     30       5.8663      2.00000
     31       6.1301      2.00000
     32       6.1481      2.00000
     33       6.9901      2.00000
     34       7.3798      2.00000
     35       7.6431      2.00000
     36       7.7848      2.00014
     37       7.9056      2.00285
     38       8.2944      1.74972
     39      11.9320      0.00000
     40      12.0972      0.00000
     41      12.6511      0.00000
     42      12.8562      0.00000
     43      13.4940      0.00000
     44      13.6819      0.00000

 k-point  41 :       0.3500    0.2500    0.4000
  band No.  band energies     occupation 
      1       0.3611      2.00000
      2       0.8137      2.00000
      3       2.8344      2.00000
      4       2.9786      2.00000
      5       3.4784      2.00000
      6       3.7412      2.00000
      7       3.7509      2.00000
      8       3.8592      2.00000
      9       4.1691      2.00000
     10       4.1812      2.00000
     11       4.4305      2.00000
     12       4.4432      2.00000
     13       4.5179      2.00000
     14       4.5190      2.00000
     15       4.6677      2.00000
     16       4.6986      2.00000
     17       4.8376      2.00000
     18       4.8376      2.00000
     19       4.9527      2.00000
     20       5.0895      2.00000
     21       5.1977      2.00000
     22       5.2104      2.00000
     23       5.3062      2.00000
     24       5.3964      2.00000
     25       5.5472      2.00000
     26       5.5844      2.00000
     27       5.6754      2.00000
     28       5.6906      2.00000
     29       5.7661      2.00000
     30       5.8643      2.00000
     31       6.0897      2.00000
     32       6.1074      2.00000
     33       6.5251      2.00000
     34       6.8349      2.00000
     35       7.4865      2.00000
     36       8.0144      2.02123
     37       8.1886      2.05724
     38       8.7638     -0.02600
     39      10.8384      0.00000
     40      11.2869      0.00000
     41      11.6423      0.00000
     42      12.2332      0.00000
     43      12.7705      0.00000
     44      14.1614      0.00000

 k-point  42 :       0.4500    0.2500    0.4000
  band No.  band energies     occupation 
      1       1.0945      2.00000
      2       1.4205      2.00000
      3       2.1598      2.00000
      4       2.3816      2.00000
      5       3.5703      2.00000
      6       3.6524      2.00000
      7       3.8387      2.00000
      8       3.8943      2.00000
      9       4.2059      2.00000
     10       4.2065      2.00000
     11       4.4609      2.00000
     12       4.4677      2.00000
     13       4.6371      2.00000
     14       4.6423      2.00000
     15       4.7273      2.00000
     16       4.7316      2.00000
     17       4.9103      2.00000
     18       4.9306      2.00000
     19       4.9515      2.00000
     20       5.0507      2.00000
     21       5.0983      2.00000
     22       5.1039      2.00000
     23       5.2766      2.00000
     24       5.3201      2.00000
     25       5.5942      2.00000
     26       5.6307      2.00000
     27       5.6361      2.00000
     28       5.6588      2.00000
     29       5.7690      2.00000
     30       5.8608      2.00000
     31       6.0421      2.00000
     32       6.0456      2.00000
     33       6.1077      2.00000
     34       6.2336      2.00000
     35       7.9485      2.00688
     36       8.3024      1.70501
     37       8.5987     -0.05281
     38       9.0324     -0.00007
     39      10.2759      0.00000
     40      10.6780      0.00000
     41      10.6883      0.00000
     42      11.1716      0.00000
     43      13.5902      0.00000
     44      14.4966      0.00000

 k-point  43 :       0.3500    0.3500    0.4000
  band No.  band energies     occupation 
      1       0.9176      2.00000
      2       1.3031      2.00000
      3       2.9616      2.00000
      4       3.0116      2.00000
      5       3.2572      2.00000
      6       3.5162      2.00000
      7       3.6729      2.00000
      8       3.8978      2.00000
      9       4.2635      2.00000
     10       4.2770      2.00000
     11       4.5021      2.00000
     12       4.5425      2.00000
     13       4.5442      2.00000
     14       4.5746      2.00000
     15       4.7491      2.00000
     16       4.7932      2.00000
     17       4.8167      2.00000
     18       4.8830      2.00000
     19       4.9692      2.00000
     20       5.1123      2.00000
     21       5.1124      2.00000
     22       5.1428      2.00000
     23       5.3463      2.00000
     24       5.4607      2.00000
     25       5.4874      2.00000
     26       5.5069      2.00000
     27       5.6839      2.00000
     28       5.6965      2.00000
     29       5.7473      2.00000
     30       5.8240      2.00000
     31       6.0384      2.00000
     32       6.0761      2.00000
     33       6.5763      2.00000
     34       6.9335      2.00000
     35       7.2315      2.00000
     36       7.2569      2.00000
     37       7.6995      2.00001
     38       8.7652     -0.02551
     39      10.4641      0.00000
     40      10.6171      0.00000
     41      11.4618      0.00000
     42      11.5155      0.00000
     43      12.7565      0.00000
     44      12.8648      0.00000

 k-point  44 :       0.4500    0.3500    0.4000
  band No.  band energies     occupation 
      1       1.5487      2.00000
      2       1.7709      2.00000
      3       2.6190      2.00000
      4       2.6779      2.00000
      5       3.3218      2.00000
      6       3.3986      2.00000
      7       3.7297      2.00000
      8       3.8249      2.00000
      9       4.3726      2.00000
     10       4.3812      2.00000
     11       4.5391      2.00000
     12       4.5674      2.00000
     13       4.6209      2.00000
     14       4.6352      2.00000
     15       4.8404      2.00000
     16       4.8469      2.00000
     17       4.9146      2.00000
     18       4.9547      2.00000
     19       4.9856      2.00000
     20       5.0580      2.00000
     21       5.0622      2.00000
     22       5.1031      2.00000
     23       5.3346      2.00000
     24       5.3716      2.00000
     25       5.5706      2.00000
     26       5.5851      2.00000
     27       5.6697      2.00000
     28       5.7256      2.00000
     29       5.7312      2.00000
     30       5.8071      2.00000
     31       6.0103      2.00000
     32       6.0261      2.00000
     33       6.1811      2.00000
     34       6.2885      2.00000
     35       7.4423      2.00000
     36       7.5328      2.00000
     37       7.7083      2.00001
     38       8.1581      2.07054
     39      10.1794      0.00000
     40      10.5121      0.00000
     41      10.8665      0.00000
     42      11.6880      0.00000
     43      12.2659      0.00000
     44      13.1872      0.00000

 k-point  45 :       0.4500    0.4500    0.4000
  band No.  band energies     occupation 
      1       1.9807      2.00000
      2       2.0622      2.00000
      3       2.8611      2.00000
      4       2.9743      2.00000
      5       3.0879      2.00000
      6       3.2240      2.00000
      7       3.6282      2.00000
      8       3.6811      2.00000
      9       4.5241      2.00000
     10       4.5553      2.00000
     11       4.5665      2.00000
     12       4.6117      2.00000
     13       4.6498      2.00000
     14       4.6583      2.00000
     15       4.9092      2.00000
     16       4.9373      2.00000
     17       5.0052      2.00000
     18       5.0066      2.00000
     19       5.0113      2.00000
     20       5.0167      2.00000
     21       5.0641      2.00000
     22       5.1118      2.00000
     23       5.4544      2.00000
     24       5.4675      2.00000
     25       5.4983      2.00000
     26       5.5273      2.00000
     27       5.6619      2.00000
     28       5.6910      2.00000
     29       5.7266      2.00000
     30       5.7614      2.00000
     31       5.9750      2.00000
     32       5.9840      2.00000
     33       6.2308      2.00000
     34       6.3246      2.00000
     35       6.8654      2.00000
     36       7.0724      2.00000
     37       7.1594      2.00000
     38       7.3787      2.00000
     39      10.4499      0.00000
     40      11.1682      0.00000
     41      11.2320      0.00000
     42      11.5343      0.00000
     43      12.0702      0.00000
     44      12.3914      0.00000


--------------------------------------------------------------------------------------------------------


 soft charge-density along one line, spin component           1
         0         1         2         3         4         5         6         7         8         9
 total charge-density along one line
 
 pseudopotential strength for first ion, spin component:           1
 -2.723   0.000   0.000   0.000   0.000  -4.847   0.000   0.000
  0.000  -2.663   0.000   0.000   0.000   0.000  -4.891   0.000
  0.000   0.000  -2.628   0.000   0.000   0.000   0.000  -4.917
  0.000   0.000   0.000  -2.663   0.000   0.000   0.000   0.000
  0.000   0.000   0.000   0.000  -2.696   0.000   0.000   0.000
 -4.847   0.000   0.000   0.000   0.000  10.369   0.000   0.000
  0.000  -4.891   0.000   0.000   0.000   0.000  10.397   0.000
  0.000   0.000  -4.917   0.000   0.000   0.000   0.000  10.417
  0.000   0.000   0.000  -4.891   0.000   0.000   0.000   0.000
  0.000   0.000   0.000   0.000  -4.866   0.000   0.000   0.000
  0.000   0.000  -0.006   0.000   0.000   0.000   0.000   0.001
  0.000   0.000  -0.010   0.000   0.000   0.000   0.000   0.001
  0.000   0.000   0.000   0.000   0.000   0.000   0.000   0.000
  0.000   0.000   0.000   0.000   0.000   0.000   0.000   0.000
  0.000   0.000   0.000   0.000   0.000   0.000   0.000   0.000
  0.000   0.000   0.000   0.000   0.000   0.000   0.000   0.000
  0.000   0.000   0.000   0.000   0.000   0.000   0.000   0.000
  0.000   0.000   0.000   0.000   0.000   0.000   0.000   0.000
 total augmentation occupancy for first ion, spin component:           1
  1.905   0.000   0.000   0.000   0.000   0.000   0.000   0.000   0.000   0.000   0.000   0.000   0.000   0.000   0.000   0.000
  0.000   1.903   0.000   0.000   0.000   0.000  -0.016   0.000   0.000   0.000   0.000   0.000   0.000   0.000   0.000   0.000
  0.000   0.000   1.938   0.000   0.000   0.000   0.000  -0.036   0.000   0.000  -0.013  -0.005   0.000   0.000   0.000   0.000
  0.000   0.000   0.000   1.903   0.000   0.000   0.000   0.000  -0.016   0.000   0.000   0.000   0.000   0.000   0.000   0.000
  0.000   0.000   0.000   0.000   1.928   0.000   0.000   0.000   0.000  -0.030   0.000   0.000   0.000   0.000   0.000   0.000
  0.000   0.000   0.000   0.000   0.000   0.015   0.000   0.000   0.000   0.000   0.000   0.000   0.000   0.000   0.000   0.000
  0.000  -0.016   0.000   0.000   0.000   0.000   0.017   0.000   0.000   0.000   0.000   0.000   0.000   0.000   0.000   0.000
  0.000   0.000  -0.036   0.000   0.000   0.000   0.000   0.015   0.000   0.000  -0.016   0.002   0.000   0.000   0.000   0.000
  0.000   0.000   0.000  -0.016   0.000   0.000   0.000   0.000   0.017   0.000   0.000   0.000   0.000   0.000   0.000   0.000
  0.000   0.000   0.000   0.000  -0.030   0.000   0.000   0.000   0.000   0.017   0.000   0.000   0.000   0.000   0.000   0.000
  0.000   0.000  -0.013   0.000   0.000   0.000   0.000  -0.016   0.000   0.000   1.799  -0.173   0.000   0.000   0.000   0.000
  0.000   0.000  -0.005   0.000   0.000   0.000   0.000   0.002   0.000   0.000  -0.173   0.024   0.000   0.000   0.000   0.000
  0.000   0.000   0.000   0.000   0.000   0.000   0.000   0.000   0.000   0.000   0.000   0.000   0.268   0.000   0.000  -0.017
  0.000   0.000   0.000   0.000   0.000   0.000   0.000   0.000   0.000   0.000   0.000   0.000   0.000   0.265   0.000   0.000
  0.000   0.000   0.000   0.000   0.000   0.000   0.000   0.000   0.000   0.000   0.000   0.000   0.000   0.000   0.268   0.000
  0.000   0.000   0.000   0.000   0.000   0.000   0.000   0.000   0.000   0.000   0.000   0.000  -0.017   0.000   0.000   0.001
  0.000   0.000   0.000   0.000   0.000   0.000   0.000   0.000   0.000   0.000   0.000   0.000   0.000  -0.016   0.000   0.000
  0.000   0.000   0.000   0.000   0.000   0.000   0.000   0.000   0.000   0.000   0.000   0.000   0.000   0.000  -0.017   0.000


------------------------ aborting loop because EDIFF is reached ----------------------------------------


    CHARGE:  cpu time    0.06: real time    0.06
    FORLOC:  cpu time    0.01: real time    0.00
    FORNL :  cpu time    0.90: real time    0.90
    STRESS:  cpu time    1.06: real time    1.06
    FORCOR:  cpu time    0.01: real time    0.01
    FORHAR:  cpu time    0.00: real time    0.00
    MIXING:  cpu time    0.00: real time    0.00

  FORCE on cell =-STRESS in cart. coord.  units (eV):
  Direction    XX          YY          ZZ          XY          YZ          ZX
  --------------------------------------------------------------------------------------
  Alpha Z   289.59947   289.59947   289.59947
  Ewald   -2066.25252 -2066.25252 -2133.35081     0.00000     0.00000     0.00000
  Hartree   850.67481   850.67481   784.17670     0.00000     0.00000     0.00000
  E(xc)    -403.67584  -403.67584  -403.66333     0.00000     0.00000     0.00000
  Local     276.48748   276.48748   409.86637     0.00000     0.00000     0.00000
  n-local   -80.01225   -94.07342   -87.00288    -0.48531     0.76053     1.62169
  augment   568.49161   568.49161   568.45852    -0.00004    -0.00003    -0.00003
  Kinetic   583.98530   559.44725   571.93238    -5.26879     0.99066     2.19730
  Fock        0.00000     0.00000     0.00000     0.00000     0.00000     0.00000
  -------------------------------------------------------------------------------------
  Total      -0.00156    -0.00156     0.01641     0.00000     0.00000     0.00000
  in kB      -0.02541    -0.02541     0.26664     0.00000     0.00000     0.00000
  external pressure =        0.07 kB  Pullay stress =        0.00 kB


 VOLUME and BASIS-vectors are now :
 -----------------------------------------------------------------------------
  energy-cutoff  :      295.45
  volume of cell :       98.62
      direct lattice vectors                 reciprocal lattice vectors
     3.666954716  0.000000000  0.000000000     0.272705849  0.000000000  0.000000000
     0.000000000  3.666954716  0.000000000     0.000000000  0.272705849  0.000000000
     0.000000000  0.000000000  7.334148597     0.000000000  0.000000000  0.136348478

  length of vectors
     3.666954716  3.666954716  7.334148597     0.272705849  0.272705849  0.136348478


 FORCES acting on ions
    electron-ion (+dipol)            ewald-force                    non-local-force                 convergence-correction
 -----------------------------------------------------------------------------------------------
   -.331E-13 0.514E-14 0.521E-12   0.897E-14 -.610E-15 -.520E-13   -.575E-28 -.335E-27 0.000E+00   -.797E-13 0.154E-13 -.406E-13
   0.251E-12 0.296E-12 -.841E-12   0.110E-13 0.446E-15 0.520E-13   0.625E-28 0.364E-27 0.000E+00   0.409E-14 -.149E-13 -.391E-13
   -.582E-13 0.242E-14 0.251E-13   0.462E-14 0.142E-13 -.711E-14   -.130E-17 0.440E-18 -.243E-16   -.654E-13 0.260E-14 -.178E-12
   0.252E-12 0.249E-12 0.218E-11   -.994E-14 -.180E-13 -.497E-13   -.868E-18 -.131E-17 0.347E-17   0.209E-13 -.335E-14 0.246E-13
   -.850E-14 0.499E-12 0.105E-11   0.127E-13 -.695E-14 0.213E-13   0.866E-18 0.427E-18 0.347E-17   -.630E-13 -.232E-13 0.778E-13
   0.221E-12 -.279E-12 0.520E-12   -.174E-13 0.375E-14 0.639E-13   -.130E-17 -.427E-18 -.347E-17   0.135E-13 -.277E-13 -.882E-13
   0.410E-14 0.653E-15 0.171E-14   -.652E-14 0.396E-15 -.842E-14   0.414E-24 0.413E-24 0.000E+00   -.171E-14 -.276E-15 -.249E-15
   -.551E-14 -.558E-12 -.620E-12   -.589E-14 0.822E-15 0.842E-14   0.414E-24 0.622E-24 0.000E+00   0.300E-14 -.368E-15 0.301E-14
 -----------------------------------------------------------------------------------------------
   0.623E-12 0.215E-12 0.284E-11   -.245E-14 -.592E-14 0.284E-13   -.260E-17 -.867E-18 -.208E-16   -.168E-12 -.518E-13 -.241E-12
 
 
 POSITION                                       TOTAL-FORCE (eV/Angst)
 -----------------------------------------------------------------------------------
      0.00000      0.00000      3.66707         0.000000      0.000000      0.000000
      1.83348      1.83348      0.00000         0.000000      0.000000      0.000000
      0.00000      1.83348      1.83354         0.000000      0.000000      0.000000
      1.83348      0.00000      1.83354         0.000000      0.000000      0.000000
      0.00000      1.83348      5.50061         0.000000      0.000000      0.000000
      1.83348      0.00000      5.50061         0.000000      0.000000      0.000000
      0.00000      0.00000      0.00000         0.000000      0.000000      0.000000
      1.83348      1.83348      3.66707         0.000000      0.000000      0.000000
 -----------------------------------------------------------------------------------
    total drift:                                0.000000      0.000000      0.000000


--------------------------------------------------------------------------------------------------------



  FREE ENERGIE OF THE ION-ELECTRON SYSTEM (eV)
  ---------------------------------------------------
  free  energy   TOTEN  =       -31.320703 eV

  energy  without entropy=      -31.324250  energy(sigma->0) =      -31.321885
 
 d Force = 0.0000000E+00[ 0.000E+00, 0.000E+00]  d Energy = 0.2805920E-05-0.281E-05
 d Force = 0.0000000E+00[ 0.000E+00, 0.000E+00]  d Ewald  = 0.3183083E+00-0.318E+00


--------------------------------------------------------------------------------------------------------


    POTLOK:  cpu time    0.02: real time    0.02


--------------------------------------------------------------------------------------------------------




--------------------------------------------------------------------------------------------------------


  
 reached required accuracy - stopping structural energy minimisation
     LOOP+:  cpu time    7.22: real time    7.28
    4ORBIT:  cpu time    0.00: real time    0.00

 total amount of memory used by VASP on root node    57590. kBytes
========================================================================

   base      :      30000. kBytes
   nonl-proj :      15339. kBytes
   fftplans  :        594. kBytes
   grid      :       1269. kBytes
   one-center:        124. kBytes
   wavefun   :      10264. kBytes
 
  
  
 General timing and accounting informations for this job:
 ========================================================
  
                  Total CPU time used (sec):       67.240
                            User time (sec):       66.900
                          System time (sec):        0.340
                         Elapsed time (sec):       67.764
  
                   Maximum memory used (kb):       64900.
                   Average memory used (kb):           0.
  
                          Minor page faults:        16619
                          Major page faults:            0
                 Voluntary context switches:          799
