 vasp.5.2.12 11Nov11 complex                                                    
  
 executed on             LinuxIFC date 2014.05.30  10:53:17
 running on    4 nodes
 distr:  one band on    1 nodes,    4 groups


--------------------------------------------------------------------------------------------------------


 INCAR:
 POTCAR:    PAW_PBE Cu 22Jun2005                  
 POTCAR:    PAW_PBE Al 04Jan2001                  
 POTCAR:    PAW_PBE Cu 22Jun2005                  
   VRHFIN =Cu: d10 p1                                                           
   LEXCH  = PE                                                                  
   EATOM  =  1390.9808 eV,  102.2342 Ry                                         
                                                                                
   TITEL  = PAW_PBE Cu 22Jun2005                                                
   LULTRA =        F    use ultrasoft PP ?                                      
   IUNSCR =        1    unscreen: 0-lin 1-nonlin 2-no                           
   RPACOR =    2.000    partial core radius                                     
   POMASS =   63.546; ZVAL   =   11.000    mass and valenz                      
   RCORE  =    2.300    outmost cutoff radius                                   
   RWIGS  =    2.200; RWIGS  =    1.164    wigner-seitz radius (au A)           
   ENMAX  =  295.446; ENMIN  =  221.585 eV                                      
   ICORE  =        3    local potential                                         
   LCOR   =        T    correct aug charges                                     
   LPAW   =        T    paw PP                                                  
   EAUG   =  586.980                                                            
   DEXC   =    0.000                                                            
   RMAX   =    2.344    core radius for proj-oper                               
   RAUG   =    1.300    factor for augmentation sphere                          
   RDEP   =    2.302    radius for radial grids                                 
   RDEPT  =    1.771    core radius for aug-charge                              
                                                                                
   Atomic configuration                                                         
    9 entries                                                                   
     n  l   j            E        occ.                                          
     1  0  0.50     -8850.2468   2.0000                                         
     2  0  0.50     -1062.3498   2.0000                                         
     2  1  1.50      -916.8226   6.0000                                         
     3  0  0.50      -114.6929   2.0000                                         
     3  1  1.50       -72.1325   6.0000                                         
     3  2  2.50        -5.0394  10.0000                                         
     4  0  0.50        -4.6097   1.0000                                         
     4  1  0.50        -4.0817   0.0000                                         
     4  3  2.50        -1.3606   0.0000                                         
   Description                                                                  
     l       E           TYP  RCUT    TYP  RCUT                                 
     2     -5.0393973     23  2.200                                             
     2     10.8846608     23  2.200                                             
     0     -4.6097109     23  2.200                                             
     0      8.2520465     23  2.200                                             
     1     -2.7211652     23  2.200                                             
     1     21.7055443     23  2.200                                             
     3      2.7211652     23  2.300                                             
  local pseudopotential read in
  partial core-charges read in
  partial kinetic energy density read in
  atomic valenz-charges read in
  non local Contribution for L=           2  read in
    real space projection operators read in
  non local Contribution for L=           2  read in
    real space projection operators read in
  non local Contribution for L=           0  read in
    real space projection operators read in
  non local Contribution for L=           0  read in
    real space projection operators read in
  non local Contribution for L=           1  read in
    real space projection operators read in
  non local Contribution for L=           1  read in
    real space projection operators read in
    PAW grid and wavefunctions read in
 
   number of l-projection  operators is LMAX  =           6
   number of lm-projection operators is LMMAX =          18
 
 POTCAR:    PAW_PBE Al 04Jan2001                  
   VRHFIN =Al: s2p1                                                             
   LEXCH  = PE                                                                  
   EATOM  =    53.5387 eV,    3.9350 Ry                                         
                                                                                
   TITEL  = PAW_PBE Al 04Jan2001                                                
   LULTRA =        F    use ultrasoft PP ?                                      
   IUNSCR =        1    unscreen: 0-lin 1-nonlin 2-no                           
   RPACOR =    1.500    partial core radius                                     
   POMASS =   26.981; ZVAL   =    3.000    mass and valenz                      
   RCORE  =    1.900    outmost cutoff radius                                   
   RWIGS  =    2.650; RWIGS  =    1.402    wigner-seitz radius (au A)           
   ENMAX  =  240.300; ENMIN  =  180.225 eV                                      
   ICORE  =        2    local potential                                         
   LCOR   =        T    correct aug charges                                     
   LPAW   =        T    paw PP                                                  
   EAUG   =  291.052                                                            
   DEXC   =    0.000                                                            
   RMAX   =    1.939    core radius for proj-oper                               
   RAUG   =    1.300    factor for augmentation sphere                          
   RDEP   =    1.966    radius for radial grids                                 
   RDEPT  =    1.856    core radius for aug-charge                              
                                                                                
   Atomic configuration                                                         
    6 entries                                                                   
     n  l   j            E        occ.                                          
     1  0  0.50     -1511.1048   2.0000                                         
     2  0  0.50      -108.1629   2.0000                                         
     2  1  1.50       -69.6402   6.0000                                         
     3  0  0.50        -7.7528   2.0000                                         
     3  1  1.50        -2.7121   1.0000                                         
     3  2  2.50        -2.7212   0.0000                                         
   Description                                                                  
     l       E           TYP  RCUT    TYP  RCUT                                 
     0     -7.7528455     23  1.900                                             
     0     -3.3096929     23  1.900                                             
     1     -2.7120682     23  1.900                                             
     1     13.6058260     23  1.900                                             
     2     -2.7211652      7  1.900                                             
  local pseudopotential read in
  partial core-charges read in
  partial kinetic energy density read in
  atomic valenz-charges read in
  non local Contribution for L=           0  read in
    real space projection operators read in
  non local Contribution for L=           0  read in
    real space projection operators read in
  non local Contribution for L=           1  read in
    real space projection operators read in
  non local Contribution for L=           1  read in
    real space projection operators read in
    PAW grid and wavefunctions read in
 
   number of l-projection  operators is LMAX  =           4
   number of lm-projection operators is LMMAX =           8
 
 Optimization of the real space projectors (new method)

 maximal supplied QI-value         = 16.25
 optimisation between [QCUT,QGAM] = [  8.78, 17.55] = [ 21.57, 86.27] Ry 
 Optimized for a Real-space Cutoff    1.61 Angstroem

   l    n(q)    QCUT    max X(q) W(low)/X(q) W(high)/X(q)  e(spline) 
   2      7     8.776     4.610    0.19E-03    0.29E-03    0.29E-06
   2      7     8.776     8.522    0.28E-03    0.56E-03    0.43E-06
   0      8     8.776    51.609    0.51E-04    0.19E-03    0.66E-07
   0      8     8.776    27.747    0.45E-04    0.18E-03    0.64E-07
   1      8     8.776    20.408    0.41E-03    0.31E-03    0.23E-06
   1      8     8.776    13.425    0.36E-03    0.28E-03    0.21E-06
 Optimization of the real space projectors (new method)

 maximal supplied QI-value         = 19.84
 optimisation between [QCUT,QGAM] = [  8.73, 17.46] = [ 21.34, 85.38] Ry 
 Optimized for a Real-space Cutoff    1.43 Angstroem

   l    n(q)    QCUT    max X(q) W(low)/X(q) W(high)/X(q)  e(spline) 
   0      7     8.731   176.870    0.24E-03    0.42E-04    0.12E-06
   0      7     8.731   105.762    0.23E-03    0.40E-04    0.11E-06
   1      7     8.731    55.370    0.23E-03    0.67E-03    0.12E-06
   1      7     8.731    20.208    0.21E-03    0.61E-03    0.12E-06
  PAW_PBE Cu 22Jun2005                  :
 energy of atom  1       EATOM=-1390.9808
 kinetic energy error for atom=    0.0452 (will be added to EATOM!!)
  PAW_PBE Al 04Jan2001                  :
 energy of atom  2       EATOM=  -53.5387
 kinetic energy error for atom=    0.0012 (will be added to EATOM!!)
 
 
 POSCAR: XYZ.2x2x2: Cu12Al4                      
  positions in direct lattice
  velocities in cartesian coordinates
 exchange correlation table for  LEXCH =        8
   RHO(1)=    0.500       N(1)  =     2000
   RHO(2)=  100.500       N(2)  =     4000
 


--------------------------------------------------------------------------------------------------------


 ion  position               nearest neighbor table
   1  0.998  0.499  0.000-  10 2.50  12 2.50   6 2.51   8 2.51  14 2.51  16 2.51   2 2.55   4 2.55
                            13 2.77  13 2.95
   2  0.252  0.751  0.250-   9 2.50  11 2.50   5 2.51   7 2.51  13 2.51  15 2.51   1 2.55   3 2.55
                            14 2.77  14 2.95
   3  0.998  0.499  0.500-  10 2.50  12 2.50   6 2.51   8 2.51  14 2.51  16 2.51   2 2.55   4 2.55
                            15 2.77  15 2.95
   4  0.252  0.751  0.750-   9 2.50  11 2.50   5 2.51   7 2.51  13 2.51  15 2.51   1 2.55   3 2.55
                            16 2.77  16 2.95
   5  0.499  0.998  0.000-  10 2.50  12 2.50   2 2.51   4 2.51  14 2.51  16 2.51   6 2.55   8 2.55
                            13 2.77  13 2.95
   6  0.751  0.252  0.250-   9 2.50  11 2.50   1 2.51   3 2.51  13 2.51  15 2.51   5 2.55   7 2.55
                            14 2.77  14 2.95
   7  0.499  0.998  0.500-  10 2.50  12 2.50   2 2.51   4 2.51  14 2.51  16 2.51   6 2.55   8 2.55
                            15 2.77  15 2.95
   8  0.751  0.252  0.750-   9 2.50  11 2.50   1 2.51   3 2.51  13 2.51  15 2.51   5 2.55   7 2.55
                            16 2.77  16 2.95
   9  0.506  0.506  0.000-  10 2.45  12 2.45  14 2.46  16 2.46   2 2.50   4 2.50   6 2.50   8 2.50

  10  0.744  0.744  0.250-   9 2.45  11 2.45  13 2.46  15 2.46   1 2.50   3 2.50   5 2.50   7 2.50

  11  0.506  0.506  0.500-  10 2.45  12 2.45  14 2.46  16 2.46   2 2.50   4 2.50   6 2.50   8 2.50

  12  0.744  0.744  0.750-   9 2.45  11 2.45  13 2.46  15 2.46   1 2.50   3 2.50   5 2.50   7 2.50

  13  0.983  0.983  0.000-  10 2.46  12 2.46   6 2.51   8 2.51   2 2.51   4 2.51  14 2.75  16 2.75
                             1 2.77   5 2.77   5 2.95   1 2.95  15 3.00  15 3.00
  14  0.267  0.267  0.250-   9 2.46  11 2.46   5 2.51   7 2.51   1 2.51   3 2.51  13 2.75  15 2.75
                             6 2.77   2 2.77   2 2.95   6 2.95  16 3.00  16 3.00
  15  0.983  0.983  0.500-  10 2.46  12 2.46   6 2.51   8 2.51   2 2.51   4 2.51  14 2.75  16 2.75
                             7 2.77   3 2.77   7 2.95   3 2.95  13 3.00  13 3.00
  16  0.267  0.267  0.750-   9 2.46  11 2.46   5 2.51   7 2.51   1 2.51   3 2.51  13 2.75  15 2.75
                             4 2.77   8 2.77   4 2.95   8 2.95  14 3.00  14 3.00
 
  LATTYP: Found a base centered orthorhombic cell.
 ALAT       =     8.0148283468
 B/A-ratio  =     1.0142392128
 C/A-ratio  =     0.7496958771
  
  Lattice vectors:
  
 A1 = (   5.7076887005,   0.0403492265,   0.0000000000)
 A2 = (  -0.0403492265,  -5.7076887005,   0.0000000000)
 A3 = (   0.0000000000,   0.0000000000,  -6.0086837671)
 Subroutine PRICEL returns following result:
 
  LATTYP: Found a base centered orthorhombic cell.
 ALAT       =     8.0148283468
 B/A-ratio  =     1.0142392128
 C/A-ratio  =     0.3748479385
  
  Lattice vectors:
  
 A1 = (   5.7076887005,   0.0403492265,   0.0000000000)
 A2 = (  -0.0403492265,  -5.7076887005,   0.0000000000)
 A3 = (   0.0000000000,   0.0000000000,  -3.0043418836)
 
   2 primitive cells build up your supercell.
 

Analysis of symmetry for initial positions (statically):

 Routine SETGRP: Setting up the symmetry group for a 
 base centered orthorhombic supercell.


 Subroutine GETGRP returns: Found  8 space group operations
 (whereof  4 operations were pure point group operations)
 out of a pool of  8 trial point group operations.


The static configuration has the point symmetry C_2v.
 The point group associated with its full space group is D_2h.

Analysis of symmetry for dynamics (positions and initial velocities):

 Subroutine DYNSYM returns: Found  8 space group operations
 (whereof  4 operations were pure point group operations)
 out of a pool of  8 trial space group operations
 (whereof  4 operations were pure point group operations)
 and found also     2 'primitive' translations


The dynamic configuration has the point symmetry C_2v.
 The point group associated with its full space group is D_2h.
 
 
 KPOINTS: Automatic mesh                          

Automatic generation of k-mesh.
 
 Subroutine IBZKPT returns following result:
 ===========================================
 
 Found     36 irreducible k-points:
 
 Following reciprocal coordinates:
            Coordinates               Weight
  0.083333  0.083333  0.083333      4.000000
  0.250000  0.083333  0.083333      8.000000
  0.416667  0.083333  0.083333      8.000000
 -0.416667  0.083333  0.083333      8.000000
 -0.250000  0.083333  0.083333      8.000000
 -0.083333  0.083333  0.083333      4.000000
  0.250000  0.250000  0.083333      4.000000
  0.416667  0.250000  0.083333      8.000000
 -0.416667  0.250000  0.083333      8.000000
 -0.250000  0.250000  0.083333      4.000000
  0.416667  0.416667  0.083333      4.000000
 -0.416667  0.416667  0.083333      4.000000
  0.083333  0.083333  0.250000      4.000000
  0.250000  0.083333  0.250000      8.000000
  0.416667  0.083333  0.250000      8.000000
 -0.416667  0.083333  0.250000      8.000000
 -0.250000  0.083333  0.250000      8.000000
 -0.083333  0.083333  0.250000      4.000000
  0.250000  0.250000  0.250000      4.000000
  0.416667  0.250000  0.250000      8.000000
 -0.416667  0.250000  0.250000      8.000000
 -0.250000  0.250000  0.250000      4.000000
  0.416667  0.416667  0.250000      4.000000
 -0.416667  0.416667  0.250000      4.000000
  0.083333  0.083333  0.416667      4.000000
  0.250000  0.083333  0.416667      8.000000
  0.416667  0.083333  0.416667      8.000000
 -0.416667  0.083333  0.416667      8.000000
 -0.250000  0.083333  0.416667      8.000000
 -0.083333  0.083333  0.416667      4.000000
  0.250000  0.250000  0.416667      4.000000
  0.416667  0.250000  0.416667      8.000000
 -0.416667  0.250000  0.416667      8.000000
 -0.250000  0.250000  0.416667      4.000000
  0.416667  0.416667  0.416667      4.000000
 -0.416667  0.416667  0.416667      4.000000
 
 Following cartesian coordinates:
            Coordinates               Weight
  0.014498  0.014498  0.013869      4.000000
  0.043700  0.014291  0.013869      8.000000
  0.072901  0.014085  0.013869      8.000000
 -0.073108  0.015117  0.013869      8.000000
 -0.043906  0.014911  0.013869      8.000000
 -0.014704  0.014704  0.013869      4.000000
  0.043493  0.043493  0.013869      4.000000
  0.072695  0.043287  0.013869      8.000000
 -0.073314  0.044319  0.013869      8.000000
 -0.044112  0.044112  0.013869      4.000000
  0.072489  0.072489  0.013869      4.000000
 -0.073521  0.073521  0.013869      4.000000
  0.014498  0.014498  0.041606      4.000000
  0.043700  0.014291  0.041606      8.000000
  0.072901  0.014085  0.041606      8.000000
 -0.073108  0.015117  0.041606      8.000000
 -0.043906  0.014911  0.041606      8.000000
 -0.014704  0.014704  0.041606      4.000000
  0.043493  0.043493  0.041606      4.000000
  0.072695  0.043287  0.041606      8.000000
 -0.073314  0.044319  0.041606      8.000000
 -0.044112  0.044112  0.041606      4.000000
  0.072489  0.072489  0.041606      4.000000
 -0.073521  0.073521  0.041606      4.000000
  0.014498  0.014498  0.069344      4.000000
  0.043700  0.014291  0.069344      8.000000
  0.072901  0.014085  0.069344      8.000000
 -0.073108  0.015117  0.069344      8.000000
 -0.043906  0.014911  0.069344      8.000000
 -0.014704  0.014704  0.069344      4.000000
  0.043493  0.043493  0.069344      4.000000
  0.072695  0.043287  0.069344      8.000000
 -0.073314  0.044319  0.069344      8.000000
 -0.044112  0.044112  0.069344      4.000000
  0.072489  0.072489  0.069344      4.000000
 -0.073521  0.073521  0.069344      4.000000
 


--------------------------------------------------------------------------------------------------------




 Dimension of arrays:
   k-points           NKPTS =     36   k-points in BZ     NKDIM =     36   number of bands    NBANDS=     88
   number of dos      NEDOS =    301   number of ions     NIONS =     16
   non local maximal  LDIM  =      6   non local SUM 2l+1 LMDIM =     18
   total plane-waves  NPLWV =  16128
   max r-space proj   IRMAX =   1480   max aug-charges    IRDMAX=   3406
   dimension x,y,z NGX =    24 NGY =   24 NGZ =   28
   dimension x,y,z NGXF=    48 NGYF=   48 NGZF=   56
   support grid    NGXF=    48 NGYF=   48 NGZF=   56
   ions per type =              12   4
 NGX,Y,Z   is equivalent  to a cutoff of   6.99,  6.99,  7.75 a.u.
 NGXF,Y,Z  is equivalent  to a cutoff of  13.98, 13.98, 15.49 a.u.


 I would recommend the setting:
   dimension x,y,z NGX =    24 NGY =   24 NGZ =   25
 SYSTEM =  Al4Cu12                                 
 POSCAR =  XYZ.2x2x2: Cu12Al4                      

 Startparameter for this run:
   NWRITE =      2    write-flag & timer
   PREC   = normal    normal or accurate (medium, high low for compatibility)
   ISTART =      0    job   : 0-new  1-cont  2-samecut
   ICHARG =      2    charge: 1-file 2-atom 10-const
   ISPIN  =      1    spin polarized calculation?
   LNONCOLLINEAR =      F non collinear calculations
   LSORBIT =      F    spin-orbit coupling
   INIWAV =      1    electr: 0-lowe 1-rand  2-diag
   LASPH  =      F    aspherical Exc in radial PAW
   METAGGA=      F    non-selfconsistent MetaGGA calc.

 Electronic Relaxation 1
   ENCUT  =  295.4 eV  21.71 Ry    4.66 a.u.   8.00  8.00  8.42*2*pi/ulx,y,z
   ENINI  =  295.4     initial cutoff
   ENAUG  =  587.0 eV  augmentation charge cutoff
   NELM   =     40;   NELMIN=  2; NELMDL=  0     # of ELM steps 
   EDIFF  = 0.1E-05   stopping-criterion for ELM
   LREAL  =      T    real-space projection
   NLSPLINE    = F    spline interpolate recip. space projectors
   LCOMPAT=      F    compatible to vasp.4.4
   GGA_COMPAT  = T    GGA compatible to vasp.4.4-vasp.4.6
   LMAXPAW     = -100 max onsite density
   LMAXMIX     =    2 max onsite mixed and CHGCAR
   VOSKOWN=      0    Vosko Wilk Nusair interpolation
   ROPT   =   -0.00050  -0.00050
 Ionic relaxation
   EDIFFG = 0.1E-04   stopping-criterion for IOM
   NSW    =     10    number of steps for IOM
   NBLOCK =      1;   KBLOCK =     10    inner block; outer block 
   IBRION =      2    ionic relax: 0-MD 1-quasi-New 2-CG
   NFREE  =      1    steps in history (QN), initial steepest desc. (CG)
   ISIF   =      3    stress and relaxation
   IWAVPR =     11    prediction:  0-non 1-charg 2-wave 3-comb
   ISYM   =      2    0-nonsym 1-usesym 2-fastsym
   LCORR  =      T    Harris-Foulkes like correction to forces

   POTIM  = 0.2500    time-step for ionic-motion
   TEIN   =    0.0    initial temperature
   TEBEG  =    0.0;   TEEND  =   0.0 temperature during run
   SMASS  =  -3.00    Nose mass-parameter (am)
   estimated Nose-frequenzy (Omega)   =  0.10E-29 period in steps =****** mass=  -0.745E-27a.u.
   SCALEE = 1.0000    scale energy and forces
   NPACO  =    256;   APACO  = 16.0  distance and # of slots for P.C.
   PSTRESS=    0.0 pullay stress

  Mass of Ions in am
   POMASS =  63.55 26.98
  Ionic Valenz
   ZVAL   =  11.00  3.00
  Atomic Wigner-Seitz radii
   RWIGS  =  -1.00 -1.00
  virtual crystal weights 
   VCA    =   1.00  1.00
   NELECT =     144.0000    total number of electrons
   NUPDOWN=      -1.0000    fix difference up-down

 DOS related values:
   EMIN   =  10.00;   EMAX   =-10.00  energy-range for DOS
   EFERMI =   0.00
   ISMEAR =     1;   SIGMA  =   0.20  broadening in eV -4-tet -1-fermi 0-gaus

 Electronic relaxation 2 (details)
   IALGO  =     68    algorithm
   LDIAG  =      T    sub-space diagonalisation (order eigenvalues)
   LSUBROT=      T    optimize rotation matrix (better conditioning)
   TURBO    =      0    0=normal 1=particle mesh
   IRESTART =      0    0=no restart 2=restart with 2 vectors
   NREBOOT  =      0    no. of reboots
   NMIN     =      0    reboot dimension
   EREF     =   0.00    reference energy to select bands
   IMIX   =      4    mixing-type and parameters
     AMIX     =   0.40;   BMIX     =  1.00
     AMIX_MAG =   1.60;   BMIX_MAG =  1.00
     AMIN     =   0.10
     WC   =   100.;   INIMIX=   1;  MIXPRE=   1

 Intra band minimization:
   WEIMIN = 0.0010     energy-eigenvalue tresh-hold
   EBREAK =  0.28E-08  absolut break condition
   DEPER  =   0.30     relativ break condition  

   TIME   =   0.40     timestep for ELM

  volume/ion in A,a.u.               =      12.23        82.56
  Fermi-wavevector in a.u.,A,eV,Ry     =   1.477870  2.792770 29.716485  2.184100
  Thomas-Fermi vector in A             =   2.592221
 
 Write flags
   LWAVE  =      F    write WAVECAR
   LCHARG =      F    write CHGCAR
   LVTOT  =      F    write LOCPOT, total local potential
   LVHAR  =      F    write LOCPOT, Hartree potential only
   LELF   =      F    write electronic localiz. function (ELF)
   LORBIT =      0    0 simple, 1 ext, 2 COOP (PROOUT)


 Dipole corrections
   LMONO  =      F    monopole corrections only (constant potential shift)
   LDIPOL =      F    correct potential (dipole corrections)
   IDIPOL =      0    1-x, 2-y, 3-z, 4-all directions 
   EPSILON=  1.0000000 bulk dielectric constant

 Exchange correlation treatment:
   GGA     =    --    GGA type
   LEXCH   =     8    internal setting for exchange type
   VOSKOWN=      0    Vosko Wilk Nusair interpolation
   LHFCALC =     F    Hartree Fock is set to
   LHFONE  =     F    Hartree Fock one center treatment
   AEXX    =    0.0000 exact exchange contribution

 Linear response parameters
   LEPSILON=     F    determine dielectric tensor
   LRPA    =     F    only Hartree local field effects (RPA)
   LNABLA  =     F    use nabla operator in PAW spheres
   LVEL    =     F    velocity operator in full k-point grid
   LINTERFAST=   F  fast interpolation
   KINTER  =     0    interpolate to denser k-point grid
   CSHIFT  =0.1000    complex shift for real part using Kramers Kronig
   OMEGAMAX=  -1.0    maximum frequency
   RTIME   =    0.100 relaxation time in fs

 Orbital magnetization related:
   ORBITALMAG=     F  switch on orbital magnetization
   LCHIMAG   =     F  perturbation theory with respect to B field
   DQ        =  0.001000  dq finite difference perturbation B field



--------------------------------------------------------------------------------------------------------


 conjugate gradient relaxation of ions
 charge density and potential will be updated during run
 non-spin polarized calculation
 RMM-DIIS sequential band-by-band and
  variant of blocked Davidson during initial phase
 perform sub-space diagonalisation
    before iterative eigenvector-optimisation
 modified Broyden-mixing scheme, WC =      100.0
 initial mixing is a Kerker type mixing with AMIX =  0.4000 and BMIX =      1.0000
 Hartree-type preconditioning will be used
 using additional bands           16
 real space projection scheme for non local part
 use partial core corrections
 calculate Harris-corrections to forces 
   (improved forces if not selfconsistent)
 use gradient corrections 
 use of overlap-Matrix (Vanderbilt PP)
 Methfessel and Paxton  Order N= 1 SIGMA  =   0.20


--------------------------------------------------------------------------------------------------------


  energy-cutoff  :      295.45
  volume of cell :      195.74
      direct lattice vectors                 reciprocal lattice vectors
     5.707688701  0.040349226  0.000000000     0.175211023 -0.001238615  0.000000000
     0.040349226  5.707688701  0.000000000    -0.001238615  0.175211023  0.000000000
     0.000000000  0.000000000  6.008683767     0.000000000  0.000000000  0.166425800

  length of vectors
     5.707831319  5.707831319  6.008683767     0.175215401  0.175215401  0.166425800


 
 k-points in units of 2pi/SCALE and weight: Automatic mesh                          
   0.01449770  0.01449770  0.01386882       0.019
   0.04369954  0.01429126  0.01386882       0.037
   0.07290138  0.01408483  0.01386882       0.037
  -0.07310781  0.01511701  0.01386882       0.037
  -0.04390597  0.01491057  0.01386882       0.037
  -0.01470414  0.01470414  0.01386882       0.019
   0.04349310  0.04349310  0.01386882       0.019
   0.07269494  0.04328667  0.01386882       0.037
  -0.07331425  0.04431885  0.01386882       0.037
  -0.04411241  0.04411241  0.01386882       0.019
   0.07248850  0.07248850  0.01386882       0.019
  -0.07352068  0.07352068  0.01386882       0.019
   0.01449770  0.01449770  0.04160645       0.019
   0.04369954  0.01429126  0.04160645       0.037
   0.07290138  0.01408483  0.04160645       0.037
  -0.07310781  0.01511701  0.04160645       0.037
  -0.04390597  0.01491057  0.04160645       0.037
  -0.01470414  0.01470414  0.04160645       0.019
   0.04349310  0.04349310  0.04160645       0.019
   0.07269494  0.04328667  0.04160645       0.037
  -0.07331425  0.04431885  0.04160645       0.037
  -0.04411241  0.04411241  0.04160645       0.019
   0.07248850  0.07248850  0.04160645       0.019
  -0.07352068  0.07352068  0.04160645       0.019
   0.01449770  0.01449770  0.06934408       0.019
   0.04369954  0.01429126  0.06934408       0.037
   0.07290138  0.01408483  0.06934408       0.037
  -0.07310781  0.01511701  0.06934408       0.037
  -0.04390597  0.01491057  0.06934408       0.037
  -0.01470414  0.01470414  0.06934408       0.019
   0.04349310  0.04349310  0.06934408       0.019
   0.07269494  0.04328667  0.06934408       0.037
  -0.07331425  0.04431885  0.06934408       0.037
  -0.04411241  0.04411241  0.06934408       0.019
   0.07248850  0.07248850  0.06934408       0.019
  -0.07352068  0.07352068  0.06934408       0.019
 
 k-points in reciprocal lattice and weights: Automatic mesh                          
   0.08333333  0.08333333  0.08333333       0.019
   0.25000000  0.08333333  0.08333333       0.037
   0.41666667  0.08333333  0.08333333       0.037
  -0.41666667  0.08333333  0.08333333       0.037
  -0.25000000  0.08333333  0.08333333       0.037
  -0.08333333  0.08333333  0.08333333       0.019
   0.25000000  0.25000000  0.08333333       0.019
   0.41666667  0.25000000  0.08333333       0.037
  -0.41666667  0.25000000  0.08333333       0.037
  -0.25000000  0.25000000  0.08333333       0.019
   0.41666667  0.41666667  0.08333333       0.019
  -0.41666667  0.41666667  0.08333333       0.019
   0.08333333  0.08333333  0.25000000       0.019
   0.25000000  0.08333333  0.25000000       0.037
   0.41666667  0.08333333  0.25000000       0.037
  -0.41666667  0.08333333  0.25000000       0.037
  -0.25000000  0.08333333  0.25000000       0.037
  -0.08333333  0.08333333  0.25000000       0.019
   0.25000000  0.25000000  0.25000000       0.019
   0.41666667  0.25000000  0.25000000       0.037
  -0.41666667  0.25000000  0.25000000       0.037
  -0.25000000  0.25000000  0.25000000       0.019
   0.41666667  0.41666667  0.25000000       0.019
  -0.41666667  0.41666667  0.25000000       0.019
   0.08333333  0.08333333  0.41666667       0.019
   0.25000000  0.08333333  0.41666667       0.037
   0.41666667  0.08333333  0.41666667       0.037
  -0.41666667  0.08333333  0.41666667       0.037
  -0.25000000  0.08333333  0.41666667       0.037
  -0.08333333  0.08333333  0.41666667       0.019
   0.25000000  0.25000000  0.41666667       0.019
   0.41666667  0.25000000  0.41666667       0.037
  -0.41666667  0.25000000  0.41666667       0.037
  -0.25000000  0.25000000  0.41666667       0.019
   0.41666667  0.41666667  0.41666667       0.019
  -0.41666667  0.41666667  0.41666667       0.019
 
 position of ions in fractional coordinates (direct lattice) 
   0.99814979  0.49886085  0.00000000
   0.25185021  0.75113915  0.25000000
   0.99814979  0.49886085  0.50000000
   0.25185021  0.75113915  0.75000000
   0.49886085  0.99814979  0.00000000
   0.75113915  0.25185021  0.25000000
   0.49886085  0.99814979  0.50000000
   0.75113915  0.25185021  0.75000000
   0.50628374  0.50628374  0.00000000
   0.74371626  0.74371626  0.25000000
   0.50628374  0.50628374  0.50000000
   0.74371626  0.74371626  0.75000000
   0.98327228  0.98327228  0.00000000
   0.26672772  0.26672772  0.25000000
   0.98327228  0.98327228  0.50000000
   0.26672772  0.26672772  0.75000000
 
 position of ions in cartesian coordinates  (Angst):
   5.71725692  2.88761702  0.00000000
   1.46779049  4.29743039  1.50217094
   5.71725692  2.88761702  3.00434188
   1.46779049  4.29743039  4.50651283
   2.88761702  5.71725692  0.00000000
   4.29743039  1.46779049  1.50217094
   2.88761702  5.71725692  3.00434188
   4.29743039  1.46779049  4.50651283
   2.91013815  2.91013815  0.00000000
   4.27490926  4.27490926  1.50217094
   2.91013815  2.91013815  3.00434188
   4.27490926  4.27490926  4.50651283
   5.65188637  5.65188637  0.00000000
   1.53316104  1.53316104  1.50217094
   5.65188637  5.65188637  3.00434188
   1.53316104  1.53316104  4.50651283
 


--------------------------------------------------------------------------------------------------------


 k-point  1 :  0.08330.08330.0833  plane waves:    2257
 k-point  2 :  0.25000.08330.0833  plane waves:    2255
 k-point  3 :  0.41670.08330.0833  plane waves:    2260
 k-point  4 :  -.41670.08330.0833  plane waves:    2262
 k-point  5 :  -.25000.08330.0833  plane waves:    2260
 k-point  6 :  -.08330.08330.0833  plane waves:    2256
 k-point  7 :  0.25000.25000.0833  plane waves:    2254
 k-point  8 :  0.41670.25000.0833  plane waves:    2258
 k-point  9 :  -.41670.25000.0833  plane waves:    2270
 k-point 10 :  -.25000.25000.0833  plane waves:    2259
 k-point 11 :  0.41670.41670.0833  plane waves:    2255
 k-point 12 :  -.41670.41670.0833  plane waves:    2265
 k-point 13 :  0.08330.08330.2500  plane waves:    2254
 k-point 14 :  0.25000.08330.2500  plane waves:    2254
 k-point 15 :  0.41670.08330.2500  plane waves:    2255
 k-point 16 :  -.41670.08330.2500  plane waves:    2257
 k-point 17 :  -.25000.08330.2500  plane waves:    2252
 k-point 18 :  -.08330.08330.2500  plane waves:    2246
 k-point 19 :  0.25000.25000.2500  plane waves:    2264
 k-point 20 :  0.41670.25000.2500  plane waves:    2260
 k-point 21 :  -.41670.25000.2500  plane waves:    2256
 k-point 22 :  -.25000.25000.2500  plane waves:    2257
 k-point 23 :  0.41670.41670.2500  plane waves:    2265
 k-point 24 :  -.41670.41670.2500  plane waves:    2272
 k-point 25 :  0.08330.08330.4167  plane waves:    2243
 k-point 26 :  0.25000.08330.4167  plane waves:    2242
 k-point 27 :  0.41670.08330.4167  plane waves:    2247
 k-point 28 :  -.41670.08330.4167  plane waves:    2255
 k-point 29 :  -.25000.08330.4167  plane waves:    2251
 k-point 30 :  -.08330.08330.4167  plane waves:    2244
 k-point 31 :  0.25000.25000.4167  plane waves:    2250
 k-point 32 :  0.41670.25000.4167  plane waves:    2264
 k-point 33 :  -.41670.25000.4167  plane waves:    2259
 k-point 34 :  -.25000.25000.4167  plane waves:    2252
 k-point 35 :  0.41670.41670.4167  plane waves:    2280
 k-point 36 :  -.41670.41670.4167  plane waves:    2278

 maximum and minimum number of plane-waves per node :      2280     2242

 maximum number of plane-waves:      2280
 maximum index in each direction: 
   IXMAX=    8   IYMAX=    7   IZMAX=    8
   IXMIN=   -8   IYMIN=   -8   IZMIN=   -8

 WARNING: aliasing errors must be expected set NGX to  34 to avoid them
 WARNING: aliasing errors must be expected set NGY to  32 to avoid them
 WARNING: aliasing errors must be expected set NGZ to  34 to avoid them
 aliasing errors are usually negligible using standard VASP settings
 and one can safely disregard these warnings

 serial   3D FFT for wavefunctions
 parallel 3D FFT for charge:
    minimum data exchange during FFTs selected (reduces bandwidth)


 total amount of memory used by VASP on root node    69267. kBytes
========================================================================

   base      :      30000. kBytes
   nonlr-proj:       3295. kBytes
   fftplans  :       1184. kBytes
   grid      :       2506. kBytes
   one-center:        248. kBytes
   wavefun   :      32034. kBytes
 
 Broyden mixing: mesh for mixing (old mesh)
   NGX = 15   NGY = 15   NGZ = 17
  (NGX  = 48   NGY  = 48   NGZ  = 56)
  gives a total of   3825 points

 initial charge density was supplied:
 charge density of overlapping atoms calculated
 number of electron     144.0000000 magnetization 
 keeping initial charge density in first step


--------------------------------------------------------------------------------------------------------


 Maximum index for non-local projection operator         1393
 Maximum index for augmentation-charges          768 (set IRDMAX)


--------------------------------------------------------------------------------------------------------


 First call to EWALD:  gamma=   0.305
 Maximum number of real-space cells 3x 3x 3
 Maximum number of reciprocal cells 3x 3x 3

    FEWALD:  cpu time    0.00: real time    0.01


----------------------------------------- Iteration    1(   1)  ---------------------------------------


    POTLOK:  cpu time    0.05: real time    0.05
    SETDIJ:  cpu time    0.03: real time    0.02
     EDDAV:  cpu time   11.89: real time   11.92
       DOS:  cpu time    0.00: real time    0.01
    --------------------------------------------
      LOOP:  cpu time   11.98: real time   12.02

 eigenvalue-minimisations  :  6336
 total energy-change (2. order) : 0.1114715E+04  (-0.3983886E+04)
 number of electron     144.0000000 magnetization 
 augmentation part      144.0000000 magnetization 

 Free energy of the ion-electron system (eV)
  ---------------------------------------------------
  alpha Z        PSCENC =       583.63369027
  Ewald energy   TEWEN  =    -12115.20191064
  -1/2 Hartree   DENC   =     -5737.07721606
  -exchange  EXHF       =         0.00000000
  -V(xc)+E(xc)   XCENC  =       446.96217810
  PAW double counting   =     15003.28054704   -16145.56408854
  entropy T*S    EENTRO =         0.01512543
  eigenvalues    EBANDS =      2173.28946900
  atomic energy  EATOM  =     16905.37720907
  ---------------------------------------------------
  free energy    TOTEN  =      1114.71500365 eV

  energy without entropy =     1114.69987823  energy(sigma->0) =     1114.70996185


--------------------------------------------------------------------------------------------------------




----------------------------------------- Iteration    1(   2)  ---------------------------------------


     EDDAV:  cpu time   11.71: real time   11.74
       DOS:  cpu time    0.01: real time    0.01
    --------------------------------------------
      LOOP:  cpu time   11.72: real time   11.76

 eigenvalue-minimisations  :  6336
 total energy-change (2. order) :-0.1044468E+04  (-0.1010939E+04)
 number of electron     144.0000000 magnetization 
 augmentation part      144.0000000 magnetization 

 Free energy of the ion-electron system (eV)
  ---------------------------------------------------
  alpha Z        PSCENC =       583.63369027
  Ewald energy   TEWEN  =    -12115.20191064
  -1/2 Hartree   DENC   =     -5737.07721606
  -exchange  EXHF       =         0.00000000
  -V(xc)+E(xc)   XCENC  =       446.96217810
  PAW double counting   =     15003.28054704   -16145.56408854
  entropy T*S    EENTRO =        -0.00901201
  eigenvalues    EBANDS =      1128.84533643
  atomic energy  EATOM  =     16905.37720907
  ---------------------------------------------------
  free energy    TOTEN  =        70.24673364 eV

  energy without entropy =       70.25574565  energy(sigma->0) =       70.24973765


--------------------------------------------------------------------------------------------------------




----------------------------------------- Iteration    1(   3)  ---------------------------------------


     EDDAV:  cpu time   12.08: real time   12.12
       DOS:  cpu time    0.01: real time    0.01
    --------------------------------------------
      LOOP:  cpu time   12.09: real time   12.13

 eigenvalue-minimisations  :  6576
 total energy-change (2. order) :-0.1414784E+03  (-0.1270520E+03)
 number of electron     144.0000000 magnetization 
 augmentation part      144.0000000 magnetization 

 Free energy of the ion-electron system (eV)
  ---------------------------------------------------
  alpha Z        PSCENC =       583.63369027
  Ewald energy   TEWEN  =    -12115.20191064
  -1/2 Hartree   DENC   =     -5737.07721606
  -exchange  EXHF       =         0.00000000
  -V(xc)+E(xc)   XCENC  =       446.96217810
  PAW double counting   =     15003.28054704   -16145.56408854
  entropy T*S    EENTRO =         0.00359591
  eigenvalues    EBANDS =       987.35431578
  atomic energy  EATOM  =     16905.37720907
  ---------------------------------------------------
  free energy    TOTEN  =       -71.23167909 eV

  energy without entropy =      -71.23527500  energy(sigma->0) =      -71.23287773


--------------------------------------------------------------------------------------------------------




----------------------------------------- Iteration    1(   4)  ---------------------------------------


     EDDAV:  cpu time   13.64: real time   13.68
       DOS:  cpu time    0.01: real time    0.01
    --------------------------------------------
      LOOP:  cpu time   13.65: real time   13.69

 eigenvalue-minimisations  :  7584
 total energy-change (2. order) :-0.6042706E+01  (-0.5939706E+01)
 number of electron     144.0000000 magnetization 
 augmentation part      144.0000000 magnetization 

 Free energy of the ion-electron system (eV)
  ---------------------------------------------------
  alpha Z        PSCENC =       583.63369027
  Ewald energy   TEWEN  =    -12115.20191064
  -1/2 Hartree   DENC   =     -5737.07721606
  -exchange  EXHF       =         0.00000000
  -V(xc)+E(xc)   XCENC  =       446.96217810
  PAW double counting   =     15003.28054704   -16145.56408854
  entropy T*S    EENTRO =         0.00246974
  eigenvalues    EBANDS =       981.31273564
  atomic energy  EATOM  =     16905.37720907
  ---------------------------------------------------
  free energy    TOTEN  =       -77.27438539 eV

  energy without entropy =      -77.27685513  energy(sigma->0) =      -77.27520864


--------------------------------------------------------------------------------------------------------




----------------------------------------- Iteration    1(   5)  ---------------------------------------


     EDDAV:  cpu time   17.00: real time   17.06
       DOS:  cpu time    0.01: real time    0.01
    CHARGE:  cpu time    0.50: real time    0.49
    MIXING:  cpu time    0.00: real time    0.00
    --------------------------------------------
      LOOP:  cpu time   17.51: real time   17.57

 eigenvalue-minimisations  :  9744
 total energy-change (2. order) :-0.1653329E+00  (-0.1651663E+00)
 number of electron     143.9997982 magnetization 
 augmentation part       75.6900196 magnetization 

 Broyden mixing:
  rms(total) = 0.32952E+01    rms(broyden)= 0.32944E+01
  rms(prec ) = 0.56337E+01
  weight for this iteration     100.00

 Free energy of the ion-electron system (eV)
  ---------------------------------------------------
  alpha Z        PSCENC =       583.63369027
  Ewald energy   TEWEN  =    -12115.20191064
  -1/2 Hartree   DENC   =     -5737.07721606
  -exchange  EXHF       =         0.00000000
  -V(xc)+E(xc)   XCENC  =       446.96217810
  PAW double counting   =     15003.28054704   -16145.56408854
  entropy T*S    EENTRO =         0.00256280
  eigenvalues    EBANDS =       981.14730971
  atomic energy  EATOM  =     16905.37720907
  ---------------------------------------------------
  free energy    TOTEN  =       -77.43971826 eV

  energy without entropy =      -77.44228106  energy(sigma->0) =      -77.44057253


--------------------------------------------------------------------------------------------------------




----------------------------------------- Iteration    1(   6)  ---------------------------------------


    POTLOK:  cpu time    0.05: real time    0.05
    SETDIJ:  cpu time    0.02: real time    0.02
    EDDIAG:  cpu time    2.03: real time    2.04
  RMM-DIIS:  cpu time    6.07: real time    6.10
    ORTHCH:  cpu time    0.55: real time    0.55
       DOS:  cpu time    0.01: real time    0.01
    CHARGE:  cpu time    0.49: real time    0.48
    MIXING:  cpu time    0.00: real time    0.00
    --------------------------------------------
      LOOP:  cpu time    9.22: real time    9.26

 eigenvalue-minimisations  :  6348
 total energy-change (2. order) : 0.3372381E+01  (-0.2398703E+02)
 number of electron     143.9997692 magnetization 
 augmentation part       89.7258947 magnetization 

 Broyden mixing:
  rms(total) = 0.22189E+01    rms(broyden)= 0.22176E+01
  rms(prec ) = 0.36803E+01
  weight for this iteration     100.00

 eigenvalues of (default mixing * dielectric matrix)
  average eigenvalue GAMMA=   0.5987
  0.5987

 Free energy of the ion-electron system (eV)
  ---------------------------------------------------
  alpha Z        PSCENC =       583.63369027
  Ewald energy   TEWEN  =    -12115.20191064
  -1/2 Hartree   DENC   =     -5259.72868601
  -exchange  EXHF       =         0.00000000
  -V(xc)+E(xc)   XCENC  =       426.42069646
  PAW double counting   =     15267.21512795   -16318.30850372
  entropy T*S    EENTRO =        -0.00125138
  eigenvalues    EBANDS =       436.52629074
  atomic energy  EATOM  =     16905.37720907
  ---------------------------------------------------
  free energy    TOTEN  =       -74.06733727 eV

  energy without entropy =      -74.06608589  energy(sigma->0) =      -74.06692014


--------------------------------------------------------------------------------------------------------




----------------------------------------- Iteration    1(   7)  ---------------------------------------


    POTLOK:  cpu time    0.05: real time    0.05
    SETDIJ:  cpu time    0.03: real time    0.02
    EDDIAG:  cpu time    2.00: real time    2.02
  RMM-DIIS:  cpu time    6.08: real time    6.11
    ORTHCH:  cpu time    0.56: real time    0.56
       DOS:  cpu time    0.02: real time    0.01
    CHARGE:  cpu time    0.49: real time    0.49
    MIXING:  cpu time    0.00: real time    0.00
    --------------------------------------------
      LOOP:  cpu time    9.23: real time    9.27

 eigenvalue-minimisations  :  6353
 total energy-change (2. order) : 0.1253332E+02  (-0.4718253E+01)
 number of electron     143.9997829 magnetization 
 augmentation part       83.9907673 magnetization 

 Broyden mixing:
  rms(total) = 0.19739E+00    rms(broyden)= 0.19647E+00
  rms(prec ) = 0.34987E+00
  weight for this iteration     100.00

 eigenvalues of (default mixing * dielectric matrix)
  average eigenvalue GAMMA=   1.0951
  0.5996  1.5906

 Free energy of the ion-electron system (eV)
  ---------------------------------------------------
  alpha Z        PSCENC =       583.63369027
  Ewald energy   TEWEN  =    -12115.20191064
  -1/2 Hartree   DENC   =     -5439.50979801
  -exchange  EXHF       =         0.00000000
  -V(xc)+E(xc)   XCENC  =       434.38440796
  PAW double counting   =     15786.15441695   -16917.17413805
  entropy T*S    EENTRO =         0.00117892
  eigenvalues    EBANDS =       700.80092632
  atomic energy  EATOM  =     16905.37720907
  ---------------------------------------------------
  free energy    TOTEN  =       -61.53401721 eV

  energy without entropy =      -61.53519613  energy(sigma->0) =      -61.53441018


--------------------------------------------------------------------------------------------------------




----------------------------------------- Iteration    1(   8)  ---------------------------------------


    POTLOK:  cpu time    0.05: real time    0.05
    SETDIJ:  cpu time    0.02: real time    0.02
    EDDIAG:  cpu time    2.00: real time    2.01
  RMM-DIIS:  cpu time    6.14: real time    6.17
    ORTHCH:  cpu time    0.57: real time    0.56
       DOS:  cpu time    0.01: real time    0.01
    CHARGE:  cpu time    0.49: real time    0.49
    MIXING:  cpu time    0.00: real time    0.00
    --------------------------------------------
      LOOP:  cpu time    9.28: real time    9.32

 eigenvalue-minimisations  :  6400
 total energy-change (2. order) : 0.6968935E-01  (-0.1374665E+00)
 number of electron     143.9997836 magnetization 
 augmentation part       83.4659659 magnetization 

 Broyden mixing:
  rms(total) = 0.19617E+00    rms(broyden)= 0.19605E+00
  rms(prec ) = 0.33987E+00
  weight for this iteration     100.00

 eigenvalues of (default mixing * dielectric matrix)
  average eigenvalue GAMMA=   1.0714
  1.9926  0.6108  0.6108

 Free energy of the ion-electron system (eV)
  ---------------------------------------------------
  alpha Z        PSCENC =       583.63369027
  Ewald energy   TEWEN  =    -12115.20191064
  -1/2 Hartree   DENC   =     -5438.79939278
  -exchange  EXHF       =         0.00000000
  -V(xc)+E(xc)   XCENC  =       434.20090764
  PAW double counting   =     16305.59573217   -17462.18471273
  entropy T*S    EENTRO =         0.00307489
  eigenvalues    EBANDS =       725.91107426
  atomic energy  EATOM  =     16905.37720907
  ---------------------------------------------------
  free energy    TOTEN  =       -61.46432786 eV

  energy without entropy =      -61.46740275  energy(sigma->0) =      -61.46535282


--------------------------------------------------------------------------------------------------------




----------------------------------------- Iteration    1(   9)  ---------------------------------------


    POTLOK:  cpu time    0.05: real time    0.05
    SETDIJ:  cpu time    0.02: real time    0.02
    EDDIAG:  cpu time    2.04: real time    2.05
  RMM-DIIS:  cpu time    6.11: real time    6.14
    ORTHCH:  cpu time    0.56: real time    0.56
       DOS:  cpu time    0.01: real time    0.01
    CHARGE:  cpu time    0.50: real time    0.49
    MIXING:  cpu time    0.00: real time    0.00
    --------------------------------------------
      LOOP:  cpu time    9.29: real time    9.33

 eigenvalue-minimisations  :  6413
 total energy-change (2. order) : 0.3947397E-01  (-0.1686878E-01)
 number of electron     143.9997839 magnetization 
 augmentation part       83.5740518 magnetization 

 Broyden mixing:
  rms(total) = 0.12848E+00    rms(broyden)= 0.12847E+00
  rms(prec ) = 0.23006E+00
  weight for this iteration     100.00

 eigenvalues of (default mixing * dielectric matrix)
  average eigenvalue GAMMA=   1.0007
  2.1706  0.7181  0.7181  0.3961

 Free energy of the ion-electron system (eV)
  ---------------------------------------------------
  alpha Z        PSCENC =       583.63369027
  Ewald energy   TEWEN  =    -12115.20191064
  -1/2 Hartree   DENC   =     -5423.34509495
  -exchange  EXHF       =         0.00000000
  -V(xc)+E(xc)   XCENC  =       433.55655211
  PAW double counting   =     16602.62234118   -17768.80073046
  entropy T*S    EENTRO =         0.00288033
  eigenvalues    EBANDS =       720.73020922
  atomic energy  EATOM  =     16905.37720907
  ---------------------------------------------------
  free energy    TOTEN  =       -61.42485389 eV

  energy without entropy =      -61.42773421  energy(sigma->0) =      -61.42581399


--------------------------------------------------------------------------------------------------------




----------------------------------------- Iteration    1(  10)  ---------------------------------------


    POTLOK:  cpu time    0.05: real time    0.05
    SETDIJ:  cpu time    0.02: real time    0.02
    EDDIAG:  cpu time    2.02: real time    2.03
  RMM-DIIS:  cpu time    6.25: real time    6.27
    ORTHCH:  cpu time    0.56: real time    0.55
       DOS:  cpu time    0.01: real time    0.01
    CHARGE:  cpu time    0.50: real time    0.50
    MIXING:  cpu time    0.00: real time    0.00
    --------------------------------------------
      LOOP:  cpu time    9.41: real time    9.45

 eigenvalue-minimisations  :  6434
 total energy-change (2. order) : 0.2918207E-01  (-0.4762223E-02)
 number of electron     143.9997833 magnetization 
 augmentation part       83.7242631 magnetization 

 Broyden mixing:
  rms(total) = 0.46652E-01    rms(broyden)= 0.46641E-01
  rms(prec ) = 0.92976E-01
  weight for this iteration     100.00

 eigenvalues of (default mixing * dielectric matrix)
  average eigenvalue GAMMA=   1.1738
  2.0597  1.7578  0.9902  0.6399  0.4216

 Free energy of the ion-electron system (eV)
  ---------------------------------------------------
  alpha Z        PSCENC =       583.63369027
  Ewald energy   TEWEN  =    -12115.20191064
  -1/2 Hartree   DENC   =     -5416.34277452
  -exchange  EXHF       =         0.00000000
  -V(xc)+E(xc)   XCENC  =       433.29647547
  PAW double counting   =     16652.06069217   -17818.54767228
  entropy T*S    EENTRO =         0.00255770
  eigenvalues    EBANDS =       714.32606095
  atomic energy  EATOM  =     16905.37720907
  ---------------------------------------------------
  free energy    TOTEN  =       -61.39567182 eV

  energy without entropy =      -61.39822952  energy(sigma->0) =      -61.39652439


--------------------------------------------------------------------------------------------------------




----------------------------------------- Iteration    1(  11)  ---------------------------------------


    POTLOK:  cpu time    0.05: real time    0.05
    SETDIJ:  cpu time    0.02: real time    0.02
    EDDIAG:  cpu time    2.03: real time    2.03
  RMM-DIIS:  cpu time    6.19: real time    6.22
    ORTHCH:  cpu time    0.55: real time    0.54
       DOS:  cpu time    0.01: real time    0.01
    CHARGE:  cpu time    0.50: real time    0.50
    MIXING:  cpu time    0.00: real time    0.00
    --------------------------------------------
      LOOP:  cpu time    9.35: real time    9.38

 eigenvalue-minimisations  :  6454
 total energy-change (2. order) : 0.5577446E-02  (-0.1944445E-02)
 number of electron     143.9997831 magnetization 
 augmentation part       83.8217602 magnetization 

 Broyden mixing:
  rms(total) = 0.81650E-02    rms(broyden)= 0.81279E-02
  rms(prec ) = 0.10031E-01
  weight for this iteration     100.00

 eigenvalues of (default mixing * dielectric matrix)
  average eigenvalue GAMMA=   1.3057
  2.3024  2.2643  1.1004  1.1004  0.4259  0.6405

 Free energy of the ion-electron system (eV)
  ---------------------------------------------------
  alpha Z        PSCENC =       583.63369027
  Ewald energy   TEWEN  =    -12115.20191064
  -1/2 Hartree   DENC   =     -5410.18776023
  -exchange  EXHF       =         0.00000000
  -V(xc)+E(xc)   XCENC  =       433.12033688
  PAW double counting   =     16714.54821769   -17882.14981634
  entropy T*S    EENTRO =         0.00203107
  eigenvalues    EBANDS =       709.46790787
  atomic energy  EATOM  =     16905.37720907
  ---------------------------------------------------
  free energy    TOTEN  =       -61.39009437 eV

  energy without entropy =      -61.39212544  energy(sigma->0) =      -61.39077140


--------------------------------------------------------------------------------------------------------




----------------------------------------- Iteration    1(  12)  ---------------------------------------


    POTLOK:  cpu time    0.05: real time    0.05
    SETDIJ:  cpu time    0.02: real time    0.02
    EDDIAG:  cpu time    2.02: real time    2.02
  RMM-DIIS:  cpu time    6.89: real time    6.91
    ORTHCH:  cpu time    0.53: real time    0.54
       DOS:  cpu time    0.01: real time    0.01
    CHARGE:  cpu time    0.50: real time    0.49
    MIXING:  cpu time    0.00: real time    0.00
    --------------------------------------------
      LOOP:  cpu time   10.02: real time   10.06

 eigenvalue-minimisations  :  7127
 total energy-change (2. order) :-0.2922120E-03  (-0.3261775E-03)
 number of electron     143.9997830 magnetization 
 augmentation part       83.8452919 magnetization 

 Broyden mixing:
  rms(total) = 0.86283E-02    rms(broyden)= 0.86239E-02
  rms(prec ) = 0.13145E-01
  weight for this iteration     100.00

 eigenvalues of (default mixing * dielectric matrix)
  average eigenvalue GAMMA=   1.4076
  2.7778  2.7778  0.4259  0.6422  0.9228  1.1534  1.1534

 Free energy of the ion-electron system (eV)
  ---------------------------------------------------
  alpha Z        PSCENC =       583.63369027
  Ewald energy   TEWEN  =    -12115.20191064
  -1/2 Hartree   DENC   =     -5409.80468000
  -exchange  EXHF       =         0.00000000
  -V(xc)+E(xc)   XCENC  =       433.10216553
  PAW double counting   =     16719.52491421   -17886.86576659
  entropy T*S    EENTRO =         0.00205889
  eigenvalues    EBANDS =       708.84193268
  atomic energy  EATOM  =     16905.37720907
  ---------------------------------------------------
  free energy    TOTEN  =       -61.39038659 eV

  energy without entropy =      -61.39244548  energy(sigma->0) =      -61.39107288


--------------------------------------------------------------------------------------------------------




----------------------------------------- Iteration    1(  13)  ---------------------------------------


    POTLOK:  cpu time    0.05: real time    0.05
    SETDIJ:  cpu time    0.02: real time    0.02
    EDDIAG:  cpu time    2.00: real time    2.00
  RMM-DIIS:  cpu time    6.31: real time    6.33
    ORTHCH:  cpu time    0.54: real time    0.54
       DOS:  cpu time    0.01: real time    0.01
    CHARGE:  cpu time    0.50: real time    0.50
    MIXING:  cpu time    0.00: real time    0.00
    --------------------------------------------
      LOOP:  cpu time    9.43: real time    9.46

 eigenvalue-minimisations  :  6499
 total energy-change (2. order) : 0.1005543E-03  (-0.5039021E-04)
 number of electron     143.9997831 magnetization 
 augmentation part       83.8254813 magnetization 

 Broyden mixing:
  rms(total) = 0.16456E-02    rms(broyden)= 0.16441E-02
  rms(prec ) = 0.30416E-02
  weight for this iteration     100.00

 eigenvalues of (default mixing * dielectric matrix)
  average eigenvalue GAMMA=   1.4162
  2.9684  2.4719  1.5069  1.1965  1.1965  0.9207  0.6425  0.4258

 Free energy of the ion-electron system (eV)
  ---------------------------------------------------
  alpha Z        PSCENC =       583.63369027
  Ewald energy   TEWEN  =    -12115.20191064
  -1/2 Hartree   DENC   =     -5410.94559558
  -exchange  EXHF       =         0.00000000
  -V(xc)+E(xc)   XCENC  =       433.15447826
  PAW double counting   =     16710.65018171   -17877.77660588
  entropy T*S    EENTRO =         0.00209182
  eigenvalues    EBANDS =       709.71617494
  atomic energy  EATOM  =     16905.37720907
  ---------------------------------------------------
  free energy    TOTEN  =       -61.39028603 eV

  energy without entropy =      -61.39237786  energy(sigma->0) =      -61.39098331


--------------------------------------------------------------------------------------------------------




----------------------------------------- Iteration    1(  14)  ---------------------------------------


    POTLOK:  cpu time    0.05: real time    0.05
    SETDIJ:  cpu time    0.02: real time    0.02
    EDDIAG:  cpu time    2.03: real time    2.04
  RMM-DIIS:  cpu time    8.10: real time    8.12
    ORTHCH:  cpu time    0.55: real time    0.55
       DOS:  cpu time    0.01: real time    0.01
    CHARGE:  cpu time    0.50: real time    0.49
    MIXING:  cpu time    0.00: real time    0.00
    --------------------------------------------
      LOOP:  cpu time   11.26: real time   11.29

 eigenvalue-minimisations  :  8130
 total energy-change (2. order) :-0.1313525E-04  (-0.8151768E-05)
 number of electron     143.9997831 magnetization 
 augmentation part       83.8283712 magnetization 

 Broyden mixing:
  rms(total) = 0.10238E-02    rms(broyden)= 0.10237E-02
  rms(prec ) = 0.12058E-02
  weight for this iteration     100.00

 eigenvalues of (default mixing * dielectric matrix)
  average eigenvalue GAMMA=   1.2627
  2.9754  2.4724  0.4258  0.6425  0.9206  1.1954  1.1954  1.5168  0.0199

 Free energy of the ion-electron system (eV)
  ---------------------------------------------------
  alpha Z        PSCENC =       583.63369027
  Ewald energy   TEWEN  =    -12115.20191064
  -1/2 Hartree   DENC   =     -5410.65922810
  -exchange  EXHF       =         0.00000000
  -V(xc)+E(xc)   XCENC  =       433.14421647
  PAW double counting   =     16711.78952795   -17879.04701338
  entropy T*S    EENTRO =         0.00207561
  eigenvalues    EBANDS =       709.57113359
  atomic energy  EATOM  =     16905.37720907
  ---------------------------------------------------
  free energy    TOTEN  =       -61.39029917 eV

  energy without entropy =      -61.39237478  energy(sigma->0) =      -61.39099104


--------------------------------------------------------------------------------------------------------




----------------------------------------- Iteration    1(  15)  ---------------------------------------


    POTLOK:  cpu time    0.05: real time    0.05
    SETDIJ:  cpu time    0.02: real time    0.02
    EDDIAG:  cpu time    2.00: real time    2.01
  RMM-DIIS:  cpu time    4.57: real time    4.57
    ORTHCH:  cpu time    0.55: real time    0.55
       DOS:  cpu time    0.01: real time    0.01
    --------------------------------------------
      LOOP:  cpu time    7.20: real time    7.23

 eigenvalue-minimisations  :  4409
 total energy-change (2. order) :-0.5244765E-06  (-0.4373324E-06)
 number of electron     143.9997831 magnetization 
 augmentation part       83.8283712 magnetization 

 Free energy of the ion-electron system (eV)
  ---------------------------------------------------
  alpha Z        PSCENC =       583.63369027
  Ewald energy   TEWEN  =    -12115.20191064
  -1/2 Hartree   DENC   =     -5410.70099459
  -exchange  EXHF       =         0.00000000
  -V(xc)+E(xc)   XCENC  =       433.14531804
  PAW double counting   =     16709.24485560   -17876.51106756
  entropy T*S    EENTRO =         0.00208189
  eigenvalues    EBANDS =       709.62051824
  atomic energy  EATOM  =     16905.37720907
  ---------------------------------------------------
  free energy    TOTEN  =       -61.39029969 eV

  energy without entropy =      -61.39238158  energy(sigma->0) =      -61.39099365


--------------------------------------------------------------------------------------------------------




 average (electrostatic) potential at core
  the test charge radii are     0.9430  1.0406
  (the norm of the test charge is              1.0000)
       1 -63.2264       2 -63.2264       3 -63.2264       4 -63.2264       5 -63.2264
       6 -63.2264       7 -63.2264       8 -63.2264       9 -63.1705      10 -63.1705
      11 -63.1705      12 -63.1705      13 -71.9388      14 -71.9388      15 -71.9388
      16 -71.9388
 
 
 
 E-fermi :   8.4730     XC(G=0): -12.2377     alpha+bet :-14.7357


 k-point   1 :       0.0833    0.0833    0.0833
  band No.  band energies     occupation 
      1      -2.0275      2.00000
      2       1.2101      2.00000
      3       1.2171      2.00000
      4       2.1645      2.00000
      5       2.2557      2.00000
      6       2.4185      2.00000
      7       2.9035      2.00000
      8       3.0956      2.00000
      9       3.1501      2.00000
     10       3.2890      2.00000
     11       3.4119      2.00000
     12       3.4161      2.00000
     13       3.5178      2.00000
     14       3.8254      2.00000
     15       4.0275      2.00000
     16       4.2381      2.00000
     17       4.2558      2.00000
     18       4.2982      2.00000
     19       4.3584      2.00000
     20       4.3894      2.00000
     21       4.4394      2.00000
     22       4.4404      2.00000
     23       4.5421      2.00000
     24       4.6074      2.00000
     25       4.6734      2.00000
     26       4.8739      2.00000
     27       4.9602      2.00000
     28       4.9806      2.00000
     29       4.9921      2.00000
     30       4.9923      2.00000
     31       5.0604      2.00000
     32       5.0827      2.00000
     33       5.1070      2.00000
     34       5.1601      2.00000
     35       5.1757      2.00000
     36       5.1977      2.00000
     37       5.2699      2.00000
     38       5.3207      2.00000
     39       5.3871      2.00000
     40       5.3951      2.00000
     41       5.5078      2.00000
     42       5.5371      2.00000
     43       5.5686      2.00000
     44       5.6849      2.00000
     45       5.7072      2.00000
     46       5.7115      2.00000
     47       5.7450      2.00000
     48       5.7919      2.00000
     49       5.7980      2.00000
     50       5.8589      2.00000
     51       5.9427      2.00000
     52       5.9718      2.00000
     53       6.0198      2.00000
     54       6.0407      2.00000
     55       6.0847      2.00000
     56       6.1012      2.00000
     57       6.1452      2.00000
     58       6.1829      2.00000
     59       6.1832      2.00000
     60       6.1892      2.00000
     61       6.1986      2.00000
     62       6.2070      2.00000
     63       6.2340      2.00000
     64       6.3307      2.00000
     65       6.3547      2.00000
     66       6.3626      2.00000
     67       6.5547      2.00000
     68       6.5566      2.00000
     69       6.5665      2.00000
     70       6.6235      2.00000
     71       6.8135      2.00000
     72       7.1991      2.00000
     73       7.3152      2.00000
     74       9.5532      0.00000
     75       9.9163      0.00000
     76      10.3153      0.00000
     77      10.8711      0.00000
     78      10.9728      0.00000
     79      11.0682      0.00000
     80      11.2422      0.00000
     81      12.0889      0.00000
     82      12.4016      0.00000
     83      13.0154      0.00000
     84      13.3816      0.00000
     85      13.6011      0.00000
     86      13.7368      0.00000
     87      14.8654      0.00000
     88      14.9174      0.00000

 k-point   2 :       0.2500    0.0833    0.0833
  band No.  band energies     occupation 
      1      -1.7867      2.00000
      2       0.4813      2.00000
      3       1.3908      2.00000
      4       2.0180      2.00000
      5       2.3882      2.00000
      6       2.7543      2.00000
      7       2.7887      2.00000
      8       3.1215      2.00000
      9       3.1828      2.00000
     10       3.4407      2.00000
     11       3.4469      2.00000
     12       3.5701      2.00000
     13       3.5797      2.00000
     14       3.8910      2.00000
     15       4.1053      2.00000
     16       4.1765      2.00000
     17       4.2492      2.00000
     18       4.2899      2.00000
     19       4.3338      2.00000
     20       4.3827      2.00000
     21       4.4510      2.00000
     22       4.4739      2.00000
     23       4.4872      2.00000
     24       4.5650      2.00000
     25       4.6049      2.00000
     26       4.7850      2.00000
     27       4.8552      2.00000
     28       4.8900      2.00000
     29       4.8968      2.00000
     30       4.9455      2.00000
     31       4.9481      2.00000
     32       4.9786      2.00000
     33       5.0462      2.00000
     34       5.0972      2.00000
     35       5.1532      2.00000
     36       5.1880      2.00000
     37       5.2288      2.00000
     38       5.3265      2.00000
     39       5.3653      2.00000
     40       5.4534      2.00000
     41       5.4610      2.00000
     42       5.4972      2.00000
     43       5.5357      2.00000
     44       5.5380      2.00000
     45       5.6065      2.00000
     46       5.6264      2.00000
     47       5.6978      2.00000
     48       5.7129      2.00000
     49       5.7557      2.00000
     50       5.8189      2.00000
     51       5.8697      2.00000
     52       5.8702      2.00000
     53       5.9265      2.00000
     54       6.0009      2.00000
     55       6.0300      2.00000
     56       6.0381      2.00000
     57       6.0823      2.00000
     58       6.1026      2.00000
     59       6.1239      2.00000
     60       6.1492      2.00000
     61       6.2108      2.00000
     62       6.2257      2.00000
     63       6.2468      2.00000
     64       6.2919      2.00000
     65       6.3727      2.00000
     66       6.3905      2.00000
     67       6.5512      2.00000
     68       6.6086      2.00000
     69       6.8925      2.00000
     70       7.1069      2.00000
     71       7.1393      2.00000
     72       7.5520      2.00000
     73       7.6894      2.00000
     74       9.3475      0.00000
     75       9.8913      0.00000
     76      10.3617      0.00000
     77      10.7640      0.00000
     78      11.2285      0.00000
     79      11.6125      0.00000
     80      11.9622      0.00000
     81      12.1540      0.00000
     82      12.1956      0.00000
     83      12.9900      0.00000
     84      13.0844      0.00000
     85      13.4041      0.00000
     86      14.5075      0.00000
     87      15.1893      0.00000
     88      15.4224      0.00000

 k-point   3 :       0.4167    0.0833    0.0833
  band No.  band energies     occupation 
      1      -1.3662      2.00000
      2      -0.3187      2.00000
      3       1.6503      2.00000
      4       2.1851      2.00000
      5       2.5326      2.00000
      6       2.5746      2.00000
      7       2.7987      2.00000
      8       3.0759      2.00000
      9       3.1981      2.00000
     10       3.4973      2.00000
     11       3.6037      2.00000
     12       3.6589      2.00000
     13       3.7055      2.00000
     14       3.9797      2.00000
     15       3.9894      2.00000
     16       4.1261      2.00000
     17       4.1707      2.00000
     18       4.3229      2.00000
     19       4.3492      2.00000
     20       4.4259      2.00000
     21       4.4600      2.00000
     22       4.5030      2.00000
     23       4.5254      2.00000
     24       4.5651      2.00000
     25       4.5986      2.00000
     26       4.6497      2.00000
     27       4.7078      2.00000
     28       4.7336      2.00000
     29       4.7869      2.00000
     30       4.7891      2.00000
     31       4.8075      2.00000
     32       4.8841      2.00000
     33       4.9499      2.00000
     34       4.9909      2.00000
     35       5.0537      2.00000
     36       5.1746      2.00000
     37       5.2106      2.00000
     38       5.2559      2.00000
     39       5.2835      2.00000
     40       5.2863      2.00000
     41       5.3808      2.00000
     42       5.4531      2.00000
     43       5.4891      2.00000
     44       5.6082      2.00000
     45       5.6298      2.00000
     46       5.6966      2.00000
     47       5.6987      2.00000
     48       5.7400      2.00000
     49       5.7424      2.00000
     50       5.8075      2.00000
     51       5.8287      2.00000
     52       5.8830      2.00000
     53       5.8893      2.00000
     54       5.9111      2.00000
     55       6.0304      2.00000
     56       6.0604      2.00000
     57       6.0665      2.00000
     58       6.0956      2.00000
     59       6.1072      2.00000
     60       6.1082      2.00000
     61       6.1901      2.00000
     62       6.2484      2.00000
     63       6.2489      2.00000
     64       6.2669      2.00000
     65       6.3479      2.00000
     66       6.4568      2.00000
     67       6.5065      2.00000
     68       6.6904      2.00000
     69       6.8060      2.00000
     70       7.2245      2.00000
     71       7.8657      2.00015
     72       8.2948      2.01952
     73       8.6822     -0.05857
     74       8.9345     -0.00524
     75       9.3425      0.00000
     76       9.9994      0.00000
     77      10.6840      0.00000
     78      10.8558      0.00000
     79      11.7736      0.00000
     80      12.3312      0.00000
     81      12.4761      0.00000
     82      12.9682      0.00000
     83      13.4694      0.00000
     84      13.4840      0.00000
     85      13.9107      0.00000
     86      14.8799      0.00000
     87      15.0182      0.00000
     88      15.2909      0.00000

 k-point   4 :      -0.4167    0.0833    0.0833
  band No.  band energies     occupation 
      1      -1.3636      2.00000
      2      -0.3155      2.00000
      3       1.6525      2.00000
      4       2.0952      2.00000
      5       2.5313      2.00000
      6       2.5835      2.00000
      7       2.8057      2.00000
      8       3.1616      2.00000
      9       3.1962      2.00000
     10       3.5271      2.00000
     11       3.5695      2.00000
     12       3.6398      2.00000
     13       3.6919      2.00000
     14       3.9896      2.00000
     15       4.0261      2.00000
     16       4.1312      2.00000
     17       4.1933      2.00000
     18       4.3295      2.00000
     19       4.3649      2.00000
     20       4.4298      2.00000
     21       4.4837      2.00000
     22       4.4896      2.00000
     23       4.5188      2.00000
     24       4.5761      2.00000
     25       4.5866      2.00000
     26       4.6230      2.00000
     27       4.6917      2.00000
     28       4.7012      2.00000
     29       4.7698      2.00000
     30       4.8022      2.00000
     31       4.8359      2.00000
     32       4.8951      2.00000
     33       4.9267      2.00000
     34       4.9807      2.00000
     35       5.0756      2.00000
     36       5.1826      2.00000
     37       5.2257      2.00000
     38       5.2461      2.00000
     39       5.2781      2.00000
     40       5.2811      2.00000
     41       5.4006      2.00000
     42       5.4259      2.00000
     43       5.4516      2.00000
     44       5.5474      2.00000
     45       5.6453      2.00000
     46       5.7189      2.00000
     47       5.7297      2.00000
     48       5.7572      2.00000
     49       5.7889      2.00000
     50       5.8157      2.00000
     51       5.8418      2.00000
     52       5.8759      2.00000
     53       5.8969      2.00000
     54       5.9071      2.00000
     55       6.0096      2.00000
     56       6.0428      2.00000
     57       6.0640      2.00000
     58       6.0949      2.00000
     59       6.1062      2.00000
     60       6.1124      2.00000
     61       6.1416      2.00000
     62       6.1973      2.00000
     63       6.2488      2.00000
     64       6.2898      2.00000
     65       6.3691      2.00000
     66       6.4653      2.00000
     67       6.5107      2.00000
     68       6.6846      2.00000
     69       6.7863      2.00000
     70       7.2242      2.00000
     71       7.8622      2.00014
     72       8.3137      1.97820
     73       8.7640     -0.05920
     74       8.9402     -0.00467
     75       9.3593      0.00000
     76       9.9798      0.00000
     77      10.6830      0.00000
     78      10.8106      0.00000
     79      11.8044      0.00000
     80      12.2676      0.00000
     81      12.4503      0.00000
     82      12.4693      0.00000
     83      13.4452      0.00000
     84      13.9026      0.00000
     85      14.1643      0.00000
     86      14.8857      0.00000
     87      15.1646      0.00000
     88      15.5597      0.00000

 k-point   5 :      -0.2500    0.0833    0.0833
  band No.  band energies     occupation 
      1      -1.7838      2.00000
      2       0.5138      2.00000
      3       1.3935      2.00000
      4       1.8117      2.00000
      5       2.3958      2.00000
      6       2.8021      2.00000
      7       2.8827      2.00000
      8       3.1735      2.00000
      9       3.1814      2.00000
     10       3.4388      2.00000
     11       3.4672      2.00000
     12       3.5106      2.00000
     13       3.5730      2.00000
     14       3.9009      2.00000
     15       4.1275      2.00000
     16       4.2122      2.00000
     17       4.2329      2.00000
     18       4.2958      2.00000
     19       4.3363      2.00000
     20       4.4144      2.00000
     21       4.4742      2.00000
     22       4.4751      2.00000
     23       4.5358      2.00000
     24       4.5891      2.00000
     25       4.6425      2.00000
     26       4.7217      2.00000
     27       4.7872      2.00000
     28       4.8014      2.00000
     29       4.8690      2.00000
     30       4.9224      2.00000
     31       4.9307      2.00000
     32       5.0139      2.00000
     33       5.0754      2.00000
     34       5.1114      2.00000
     35       5.1279      2.00000
     36       5.2454      2.00000
     37       5.2936      2.00000
     38       5.2951      2.00000
     39       5.3100      2.00000
     40       5.3741      2.00000
     41       5.4202      2.00000
     42       5.5354      2.00000
     43       5.5408      2.00000
     44       5.5786      2.00000
     45       5.6202      2.00000
     46       5.6554      2.00000
     47       5.7310      2.00000
     48       5.7479      2.00000
     49       5.8000      2.00000
     50       5.8460      2.00000
     51       5.8609      2.00000
     52       5.8889      2.00000
     53       5.9516      2.00000
     54       5.9734      2.00000
     55       6.0083      2.00000
     56       6.0373      2.00000
     57       6.0856      2.00000
     58       6.0932      2.00000
     59       6.0979      2.00000
     60       6.1039      2.00000
     61       6.1483      2.00000
     62       6.1613      2.00000
     63       6.2483      2.00000
     64       6.3240      2.00000
     65       6.4070      2.00000
     66       6.4260      2.00000
     67       6.5067      2.00000
     68       6.6085      2.00000
     69       6.9247      2.00000
     70       7.1430      2.00000
     71       7.1599      2.00000
     72       7.4694      2.00000
     73       7.6204      2.00000
     74       9.6458      0.00000
     75       9.9753      0.00000
     76      10.2700      0.00000
     77      10.6034      0.00000
     78      11.0931      0.00000
     79      11.3190      0.00000
     80      11.9833      0.00000
     81      12.1718      0.00000
     82      12.7455      0.00000
     83      12.7949      0.00000
     84      13.0145      0.00000
     85      13.4170      0.00000
     86      14.1084      0.00000
     87      15.1528      0.00000
     88      15.4308      0.00000

 k-point   6 :      -0.0833    0.0833    0.0833
  band No.  band energies     occupation 
      1      -2.0264      2.00000
      2       1.2183      2.00000
      3       1.3144      2.00000
      4       1.7859      2.00000
      5       2.2584      2.00000
      6       2.8195      2.00000
      7       2.9226      2.00000
      8       2.9839      2.00000
      9       3.0760      2.00000
     10       3.3512      2.00000
     11       3.4097      2.00000
     12       3.4467      2.00000
     13       3.4570      2.00000
     14       3.8291      2.00000
     15       4.0276      2.00000
     16       4.2442      2.00000
     17       4.2594      2.00000
     18       4.3052      2.00000
     19       4.3393      2.00000
     20       4.3750      2.00000
     21       4.4398      2.00000
     22       4.5024      2.00000
     23       4.5559      2.00000
     24       4.6207      2.00000
     25       4.6995      2.00000
     26       4.8890      2.00000
     27       4.8937      2.00000
     28       4.9208      2.00000
     29       4.9607      2.00000
     30       5.0110      2.00000
     31       5.0122      2.00000
     32       5.0870      2.00000
     33       5.1068      2.00000
     34       5.1555      2.00000
     35       5.1902      2.00000
     36       5.2244      2.00000
     37       5.2870      2.00000
     38       5.3363      2.00000
     39       5.4024      2.00000
     40       5.4604      2.00000
     41       5.4753      2.00000
     42       5.5019      2.00000
     43       5.5558      2.00000
     44       5.5604      2.00000
     45       5.6980      2.00000
     46       5.7241      2.00000
     47       5.8479      2.00000
     48       5.8491      2.00000
     49       5.9106      2.00000
     50       5.9393      2.00000
     51       5.9460      2.00000
     52       5.9501      2.00000
     53       5.9838      2.00000
     54       5.9932      2.00000
     55       6.0499      2.00000
     56       6.0603      2.00000
     57       6.0954      2.00000
     58       6.1161      2.00000
     59       6.1168      2.00000
     60       6.1511      2.00000
     61       6.1731      2.00000
     62       6.2118      2.00000
     63       6.3035      2.00000
     64       6.3040      2.00000
     65       6.3528      2.00000
     66       6.5179      2.00000
     67       6.5678      2.00000
     68       6.5944      2.00000
     69       6.6732      2.00000
     70       6.7528      2.00000
     71       6.8609      2.00000
     72       6.9107      2.00000
     73       7.2089      2.00000
     74       9.7771      0.00000
     75       9.9071      0.00000
     76      10.3239      0.00000
     77      10.5618      0.00000
     78      10.6483      0.00000
     79      11.4992      0.00000
     80      11.5219      0.00000
     81      12.1385      0.00000
     82      12.1701      0.00000
     83      13.0194      0.00000
     84      13.2139      0.00000
     85      13.4812      0.00000
     86      13.6497      0.00000
     87      14.8302      0.00000
     88      15.0154      0.00000

 k-point   7 :       0.2500    0.2500    0.0833
  band No.  band energies     occupation 
      1      -1.5525      2.00000
      2       0.4162      2.00000
[...]
     48       5.6627      2.00000
     49       5.6696      2.00000
     50       5.6791      2.00000
     51       5.6848      2.00000
     52       5.7100      2.00000
     53       5.8331      2.00000
     54       5.8559      2.00000
     55       5.8593      2.00000
     56       5.8603      2.00000
     57       5.9547      2.00000
     58       5.9739      2.00000
     59       5.9765      2.00000
     60       6.0065      2.00000
     61       6.0173      2.00000
     62       6.0228      2.00000
     63       6.0739      2.00000
     64       6.1213      2.00000
     65       6.1685      2.00000
     66       6.1689      2.00000
     67       6.7507      2.00000
     68       7.2161      2.00000
     69       7.7106      2.00005
     70       7.9688      2.02020
     71       8.0399      2.04891
     72       8.2948      1.47659
     73       8.5306     -0.01690
     74       9.2727      0.00000
     75       9.3786      0.00000
     76       9.6996      0.00000
     77      10.5745      0.00000
     78      11.0483      0.00000
     79      11.1248      0.00000
     80      11.3541      0.00000
     81      12.0366      0.00000
     82      12.0813      0.00000
     83      13.1682      0.00000
     84      13.9284      0.00000
     85      14.1644      0.00000
     86      14.6235      0.00000
     87      14.7390      0.00000
     88      14.7569      0.00000

 k-point  35 :       0.4167    0.4167    0.4167
  band No.  band energies     occupation 
      1      -0.2249      2.00000
      2       0.3408      2.00000
      3       0.6334      2.00000
      4       1.1845      2.00000
      5       1.4046      2.00000
      6       1.8665      2.00000
      7       1.9750      2.00000
      8       2.3717      2.00000
      9       3.7687      2.00000
     10       3.8603      2.00000
     11       3.9514      2.00000
     12       4.0413      2.00000
     13       4.0866      2.00000
     14       4.1014      2.00000
     15       4.1344      2.00000
     16       4.1428      2.00000
     17       4.1531      2.00000
     18       4.1842      2.00000
     19       4.2918      2.00000
     20       4.2938      2.00000
     21       4.3153      2.00000
     22       4.3710      2.00000
     23       4.3729      2.00000
     24       4.3813      2.00000
     25       4.3911      2.00000
     26       4.4195      2.00000
     27       4.4415      2.00000
     28       4.4799      2.00000
     29       4.4836      2.00000
     30       4.5222      2.00000
     31       4.5434      2.00000
     32       4.5486      2.00000
     33       4.6218      2.00000
     34       4.6930      2.00000
     35       4.7112      2.00000
     36       4.7654      2.00000
     37       4.8081      2.00000
     38       4.8245      2.00000
     39       4.8540      2.00000
     40       4.8540      2.00000
     41       5.2938      2.00000
     42       5.3099      2.00000
     43       5.3841      2.00000
     44       5.4075      2.00000
     45       5.4359      2.00000
     46       5.4398      2.00000
     47       5.5918      2.00000
     48       5.6525      2.00000
     49       5.7143      2.00000
     50       5.7585      2.00000
     51       5.7625      2.00000
     52       5.8071      2.00000
     53       5.8126      2.00000
     54       5.8190      2.00000
     55       5.8463      2.00000
     56       5.8498      2.00000
     57       5.8603      2.00000
     58       5.8719      2.00000
     59       5.9282      2.00000
     60       5.9497      2.00000
     61       5.9823      2.00000
     62       6.0168      2.00000
     63       6.0474      2.00000
     64       6.1380      2.00000
     65       6.1393      2.00000
     66       6.1430      2.00000
     67       6.2212      2.00000
     68       6.4272      2.00000
     69       8.4588      0.23314
     70       9.4040      0.00000
     71       9.4705      0.00000
     72       9.9656      0.00000
     73      10.0483      0.00000
     74      10.1908      0.00000
     75      10.2716      0.00000
     76      10.7156      0.00000
     77      11.0627      0.00000
     78      11.1208      0.00000
     79      11.1250      0.00000
     80      11.8177      0.00000
     81      11.9066      0.00000
     82      12.1391      0.00000
     83      12.1643      0.00000
     84      12.6411      0.00000
     85      12.8249      0.00000
     86      13.0002      0.00000
     87      13.1705      0.00000
     88      13.3128      0.00000

 k-point  36 :      -0.4167    0.4167    0.4167
  band No.  band energies     occupation 
      1      -0.2219      2.00000
      2       0.3424      2.00000
      3       0.7014      2.00000
      4       1.2234      2.00000
      5       1.2417      2.00000
      6       1.8145      2.00000
      7       1.9716      2.00000
      8       2.4712      2.00000
      9       3.8572      2.00000
     10       3.8741      2.00000
     11       3.9378      2.00000
     12       3.9586      2.00000
     13       4.0757      2.00000
     14       4.1224      2.00000
     15       4.1493      2.00000
     16       4.1560      2.00000
     17       4.1638      2.00000
     18       4.2310      2.00000
     19       4.2735      2.00000
     20       4.2754      2.00000
     21       4.2917      2.00000
     22       4.3179      2.00000
     23       4.3780      2.00000
     24       4.3815      2.00000
     25       4.4124      2.00000
     26       4.4312      2.00000
     27       4.4380      2.00000
     28       4.4558      2.00000
     29       4.5069      2.00000
     30       4.5123      2.00000
     31       4.5156      2.00000
     32       4.5735      2.00000
     33       4.6420      2.00000
     34       4.6534      2.00000
     35       4.6541      2.00000
     36       4.7797      2.00000
     37       4.7996      2.00000
     38       4.8042      2.00000
     39       4.8063      2.00000
     40       4.9159      2.00000
     41       5.2413      2.00000
     42       5.3094      2.00000
     43       5.3952      2.00000
     44       5.4209      2.00000
     45       5.4514      2.00000
     46       5.4951      2.00000
     47       5.5818      2.00000
     48       5.6386      2.00000
     49       5.7471      2.00000
     50       5.7780      2.00000
     51       5.7903      2.00000
     52       5.8180      2.00000
     53       5.8286      2.00000
     54       5.8287      2.00000
     55       5.8301      2.00000
     56       5.8447      2.00000
     57       5.9046      2.00000
     58       5.9172      2.00000
     59       5.9185      2.00000
     60       5.9459      2.00000
     61       5.9536      2.00000
     62       6.0370      2.00000
     63       6.0588      2.00000
     64       6.0910      2.00000
     65       6.1274      2.00000
     66       6.1400      2.00000
     67       6.2220      2.00000
     68       6.4075      2.00000
     69       8.4895      0.09598
     70       9.5087      0.00000
     71       9.7190      0.00000
     72       9.8144      0.00000
     73       9.8851      0.00000
     74      10.3362      0.00000
     75      10.5064      0.00000
     76      10.5343      0.00000
     77      10.6543      0.00000
     78      11.0759      0.00000
     79      11.3595      0.00000
     80      11.5695      0.00000
     81      11.7386      0.00000
     82      11.8393      0.00000
     83      12.0699      0.00000
     84      12.5801      0.00000
     85      12.7733      0.00000
     86      13.0345      0.00000
     87      13.3536      0.00000
     88      13.6864      0.00000


--------------------------------------------------------------------------------------------------------


 soft charge-density along one line, spin component           1
         0         1         2         3         4         5         6         7         8         9
 total charge-density along one line
 
 pseudopotential strength for first ion, spin component:           1
 -2.672   0.000  -0.026   0.000   0.001  -4.886   0.000   0.020
  0.000  -2.689   0.000   0.026   0.000   0.000  -4.874   0.000
 -0.026   0.000  -2.646   0.000  -0.018   0.020   0.000  -4.905
  0.000   0.026   0.000  -2.660   0.000   0.000  -0.019   0.000
  0.001   0.000  -0.018   0.000  -2.664   0.000   0.000   0.013
 -4.886   0.000   0.020   0.000   0.000  10.398   0.000  -0.014
  0.000  -4.874   0.000  -0.019   0.000   0.000  10.389   0.000
  0.020   0.000  -4.905   0.000   0.013  -0.014   0.000  10.411
  0.000  -0.019   0.000  -4.895   0.000   0.000   0.013   0.000
  0.000   0.000   0.013   0.000  -4.892   0.000   0.000  -0.009
 -0.005   0.000  -0.001   0.000  -0.003   0.001   0.000   0.000
 -0.009   0.000  -0.002   0.000  -0.006   0.002   0.000   0.000
  0.007   0.000   0.002   0.000   0.004  -0.003   0.000  -0.001
  0.000  -0.005   0.000   0.007   0.000   0.000   0.002   0.000
 -0.005   0.000  -0.004   0.000   0.006   0.002   0.000   0.002
  0.009   0.000   0.003   0.000   0.005  -0.003   0.000  -0.002
  0.000  -0.006   0.000   0.009   0.000   0.000   0.001   0.000
 -0.006   0.000  -0.005   0.000   0.008   0.002   0.000   0.002
 total augmentation occupancy for first ion, spin component:           1
  1.918   0.000  -0.003   0.000   0.000  -0.016   0.000   0.003   0.000  -0.001  -0.015  -0.003   0.007   0.000  -0.010   0.005
  0.000   1.905   0.000   0.001   0.000   0.000  -0.006   0.000  -0.007   0.000   0.000   0.000   0.000  -0.008   0.000   0.000
 -0.003   0.000   1.933   0.000  -0.002   0.003   0.000  -0.038   0.000   0.003  -0.004   0.003  -0.004   0.000   0.002   0.001
  0.000   0.001   0.000   1.916   0.000   0.000  -0.007   0.000  -0.007   0.000   0.000   0.000   0.000   0.006   0.000   0.000
  0.000   0.000  -0.002   0.000   1.916  -0.001   0.000   0.004   0.000  -0.029   0.004  -0.002  -0.007   0.000  -0.001   0.002
 -0.016   0.000   0.003   0.000  -0.001   0.016   0.000   0.000   0.000   0.000  -0.011   0.001   0.001   0.000  -0.002   0.000
  0.000  -0.006   0.000  -0.007   0.000   0.000   0.015   0.000   0.001   0.000   0.000   0.000   0.000  -0.003   0.000   0.000
  0.003   0.000  -0.038   0.000   0.004   0.000   0.000   0.017   0.000   0.000  -0.005   0.001   0.000   0.000  -0.001   0.000
  0.000  -0.007   0.000  -0.007   0.000   0.000   0.001   0.000   0.016   0.000   0.000   0.000   0.000   0.003   0.000   0.000
 -0.001   0.000   0.003   0.000  -0.029   0.000   0.000   0.000   0.000   0.018  -0.005   0.001   0.000   0.000   0.004   0.000
 -0.015   0.000  -0.004   0.000   0.004  -0.011   0.000  -0.005   0.000  -0.005   1.764  -0.169  -0.008   0.000   0.010   0.000
 -0.003   0.000   0.003   0.000  -0.002   0.001   0.000   0.001   0.000   0.001  -0.169   0.023   0.001   0.000  -0.003   0.000
  0.007   0.000  -0.004   0.000  -0.007   0.001   0.000   0.000   0.000   0.000  -0.008   0.001   0.263   0.000  -0.006  -0.017
  0.000  -0.008   0.000   0.006   0.000   0.000  -0.003   0.000   0.003   0.000   0.000   0.000   0.000   0.250   0.000   0.000
 -0.010   0.000   0.002   0.000  -0.001  -0.002   0.000  -0.001   0.000   0.004   0.010  -0.003  -0.006   0.000   0.259   0.001
  0.005   0.000   0.001   0.000   0.002   0.000   0.000   0.000   0.000   0.000   0.000   0.000  -0.017   0.000   0.001   0.001
  0.000  -0.003   0.000   0.005   0.000   0.000   0.000   0.000   0.000   0.000   0.000   0.000   0.000  -0.015   0.000   0.000
 -0.003   0.000  -0.002   0.000   0.004   0.000   0.000   0.000   0.000   0.000  -0.001   0.000   0.001   0.000  -0.016   0.000


------------------------ aborting loop because EDIFF is reached ----------------------------------------


    CHARGE:  cpu time    0.50: real time    0.49
    FORLOC:  cpu time    0.00: real time    0.01
    FORNL :  cpu time    3.73: real time    3.73
    STRESS:  cpu time   10.85: real time   10.89
    FORCOR:  cpu time    0.06: real time    0.06
    FORHAR:  cpu time    0.01: real time    0.02
    MIXING:  cpu time    0.01: real time    0.00

  FORCE on cell =-STRESS in cart. coord.  units (eV):
  Direction    XX          YY          ZZ          XY          YZ          ZX
  --------------------------------------------------------------------------------------
  Alpha Z   576.82804   576.82804   576.82804
  Ewald   -4354.14781 -4354.14781 -3407.68773   273.38581     0.00000     0.00000
  Hartree  1492.13425  1492.13425  2403.45468   267.11723     0.00000     0.00000
  E(xc)    -807.68382  -807.68382  -807.80245     0.02465     0.00000     0.00000
  Local     990.03477   990.03477  -867.33057  -541.94497     0.00000     0.00000
  n-local  -181.41999  -173.95414  -179.86966    -1.07581     2.02000     0.11137
  augment  1135.19438  1135.19439  1136.16424     1.36690    -0.00004    -0.00005
  Kinetic  1135.47304  1155.30188  1146.26889     1.15355     4.19976     0.01975
  Fock        0.00000     0.00000     0.00000     0.00000     0.00000     0.00000
  -------------------------------------------------------------------------------------
  Total       0.06022     0.06022     0.02544     0.02653     0.00000     0.00000
  in kB       0.48713     0.48713     0.20579     0.21463     0.00000     0.00000
  external pressure =        0.39 kB  Pullay stress =        0.00 kB


 VOLUME and BASIS-vectors are now :
 -----------------------------------------------------------------------------
  energy-cutoff  :      295.45
  volume of cell :      198.05
      direct lattice vectors                 reciprocal lattice vectors
     5.648039756  0.049923654  0.000000000     0.177066412 -0.001565110  0.000000000
     0.049923654  5.648039756  0.000000000    -0.001565110  0.177066412  0.000000000
     0.000000000  0.000000000  6.208842339     0.000000000  0.000000000  0.161060621

  length of vectors
     5.648260392  5.648260392  6.208842339     0.177073329  0.177073329  0.161060621


 FORCES acting on ions
    electron-ion (+dipol)            ewald-force                    non-local-force                 convergence-correction
 -----------------------------------------------------------------------------------------------
   -.192E+03 0.172E+03 -.139E-03   0.191E+03 -.172E+03 0.426E-13   0.128E+01 -.737E+00 -.347E-17   0.385E-02 -.343E-02 0.104E-11
   0.192E+03 -.172E+03 0.139E-03   -.191E+03 0.172E+03 -.222E-13   -.128E+01 0.737E+00 0.260E-17   -.385E-02 0.343E-02 0.371E-14
   -.192E+03 0.172E+03 -.139E-03   0.191E+03 -.172E+03 0.284E-13   0.128E+01 -.737E+00 -.347E-17   0.385E-02 -.343E-02 -.235E-11
   0.192E+03 -.172E+03 0.139E-03   -.191E+03 0.172E+03 0.212E-13   -.128E+01 0.737E+00 0.260E-17   -.385E-02 0.343E-02 0.786E-12
   0.172E+03 -.192E+03 -.139E-03   -.172E+03 0.191E+03 -.639E-13   -.737E+00 0.128E+01 -.347E-17   -.343E-02 0.385E-02 0.128E-11
   -.172E+03 0.192E+03 0.139E-03   0.172E+03 -.191E+03 0.275E-13   0.737E+00 -.128E+01 -.173E-17   0.343E-02 -.385E-02 -.503E-12
   0.172E+03 -.192E+03 -.139E-03   -.172E+03 0.191E+03 -.782E-13   -.737E+00 0.128E+01 0.347E-17   -.343E-02 0.385E-02 -.186E-11
   -.172E+03 0.192E+03 0.139E-03   0.172E+03 -.191E+03 -.143E-13   0.737E+00 -.128E+01 0.173E-17   0.343E-02 -.385E-02 -.454E-11
   0.181E+03 0.181E+03 0.574E-03   -.180E+03 -.180E+03 0.133E-14   -.142E+01 -.142E+01 0.000E+00   -.442E-02 -.442E-02 0.200E-11
   -.181E+03 -.181E+03 -.574E-03   0.180E+03 0.180E+03 0.480E-13   0.142E+01 0.142E+01 0.000E+00   0.442E-02 0.442E-02 -.281E-11
   0.181E+03 0.181E+03 0.574E-03   -.180E+03 -.180E+03 -.298E-13   -.142E+01 -.142E+01 0.000E+00   -.442E-02 -.442E-02 -.183E-11
   -.181E+03 -.181E+03 -.574E-03   0.180E+03 0.180E+03 0.118E-14   0.142E+01 0.142E+01 0.000E+00   0.442E-02 0.442E-02 -.441E-11
   -.543E+02 -.543E+02 -.221E-03   0.534E+02 0.534E+02 0.777E-14   0.869E+00 0.869E+00 0.867E-18   0.858E-03 0.858E-03 0.112E-12
   0.543E+02 0.543E+02 0.221E-03   -.534E+02 -.534E+02 0.490E-14   -.869E+00 -.869E+00 -.173E-17   -.858E-03 -.858E-03 0.224E-12
   -.543E+02 -.543E+02 -.221E-03   0.534E+02 0.534E+02 0.555E-14   0.869E+00 0.869E+00 0.867E-18   0.858E-03 0.858E-03 -.372E-13
   0.543E+02 0.543E+02 0.221E-03   -.534E+02 -.534E+02 0.104E-13   -.869E+00 -.869E+00 -.173E-17   -.858E-03 -.858E-03 -.226E-12
 -----------------------------------------------------------------------------------------------
   0.193E-10 0.244E-10 0.113E-09   0.853E-13 -.156E-12 -.941E-14   0.155E-14 0.444E-15 -.347E-17   -.220E-11 -.365E-11 -.131E-10
 
 
 POSITION                                       TOTAL-FORCE (eV/Angst)
 -----------------------------------------------------------------------------------
      5.66643      2.86387      0.00000         0.002981     -0.004437      0.000000
      1.45603      4.25859      1.55221        -0.002981      0.004437      0.000000
      5.66643      2.86387      3.10442         0.002981     -0.004437      0.000000
      1.45603      4.25859      4.65663        -0.002981      0.004437      0.000000
      2.86387      5.66643      0.00000        -0.004437      0.002981      0.000000
      4.25859      1.45603      1.55221         0.004437     -0.002981      0.000000
      2.86387      5.66643      3.10442        -0.004437      0.002981      0.000000
      4.25859      1.45603      4.65663         0.004437     -0.002981      0.000000
      2.88166      2.88166      0.00000        -0.003592     -0.003592      0.000000
      4.24079      4.24079      1.55221         0.003592      0.003592      0.000000
      2.88166      2.88166      3.10442        -0.003592     -0.003592      0.000000
      4.24079      4.24079      4.65663         0.003592      0.003592      0.000000
      5.60836      5.60836      0.00000        -0.000765     -0.000765      0.000000
      1.51409      1.51409      1.55221         0.000765      0.000765      0.000000
      5.60836      5.60836      3.10442        -0.000765     -0.000765      0.000000
      1.51409      1.51409      4.65663         0.000765      0.000765      0.000000
 -----------------------------------------------------------------------------------
    total drift:                                0.000000      0.000000      0.000000


--------------------------------------------------------------------------------------------------------



  FREE ENERGIE OF THE ION-ELECTRON SYSTEM (eV)
  ---------------------------------------------------
  free  energy   TOTEN  =       -61.475098 eV

  energy  without entropy=      -61.481955  energy(sigma->0) =      -61.477384
 
 d Force = 0.2188180E-05[ 0.207E-05, 0.231E-05]  d Energy =-0.8445895E-06 0.303E-05
 d Force = 0.7705915E-01[ 0.771E-01, 0.771E-01]  d Ewald  =-0.1006702E+00 0.178E+00


--------------------------------------------------------------------------------------------------------


    POTLOK:  cpu time    0.07: real time    0.07


--------------------------------------------------------------------------------------------------------




--------------------------------------------------------------------------------------------------------


     LOOP+:  cpu time   58.56: real time   58.78
    4ORBIT:  cpu time    0.00: real time    0.00

 total amount of memory used by VASP on root node    69267. kBytes
========================================================================

   base      :      30000. kBytes
   nonlr-proj:       3295. kBytes
   fftplans  :       1184. kBytes
   grid      :       2506. kBytes
   one-center:        248. kBytes
   wavefun   :      32034. kBytes
 
  
  
 General timing and accounting informations for this job:
 ========================================================
  
                  Total CPU time used (sec):     1034.490
                            User time (sec):     1033.320
                          System time (sec):        1.170
                         Elapsed time (sec):     1038.351
  
                   Maximum memory used (kb):      128752.
                   Average memory used (kb):           0.
  
                          Minor page faults:        33280
                          Major page faults:            0
                 Voluntary context switches:         1561
